<UPF version="2.0.1">
<PP_INFO>
Generated by new atomic code, or converted to UPF format
Author:
Generation date:
Pseudopotential type: NC
Element: Ca
Functional:  SLA  PZ   NOGX NOGC
Suggested minimum cutoff for wavefunctions:   0. Ry
Suggested minimum cutoff for charge density:   0. Ry
The Pseudo was generated with a Scalar-Relativistic Calculation
L component and cutoff radius for Local Potential:  0   0.0000
Valence configuration:
nl pn  l   occ       Rcut    Rcut US       E pseu
4S  0  0  2.00      3.090      0.000     0.000000
4P  0  1  0.00      0.000      0.000     0.000000
Generation configuration: not available.
</PP_INFO>
<!--
END OF HUMAN READABLE SECTION
-->
<PP_HEADER generated="Generated by new atomic code, or converted to UPF format" author="" date="" comment="" element="Ca" pseudo_type="NC" relativistic="scalar" is_ultrasoft="false" is_paw="false" is_coulomb="false" has_so="false" has_wfc="false" has_gipaw="false" paw_as_gipaw="false" core_correction="true" functional=" SLA  PZ   NOGX NOGC" z_valence="2.000000000000e0" total_psenergy="0.000000000000e0" wfc_cutoff="0.000000000000e0" rho_cutoff="0.000000000000e0" l_max="1" l_max_rho="0" l_local="0" mesh_size="179" number_of_wfc="2" number_of_proj="1"/>
<PP_MESH dx="6.249999999999e-2" mesh="179" xmin="-4.000000000000e0" rmax="6.213240835270e1" zmesh="2.000000000000e1">
<PP_R>
9.157819444369999e-4 9.748448054300001e-4 1.037716893680000e-3 1.104643883250000e-3
1.175887292800000e-3 1.251725507500000e-3 1.332454866820000e-3 1.418390822490000e-3
1.509869171120000e-3 1.607247366340000e-3 1.710905915580000e-3 1.821249866870000e-3
1.938710391590000e-3 2.063746469290000e-3 2.196846681170000e-3 2.338531119200000e-3
2.489353418390000e-3 2.649902920170000e-3 2.820806975190000e-3 3.002733394770000e-3
3.196393060340000e-3 3.402542701250000e-3 3.621987851710000e-3 3.855585998420000e-3
4.104249931190001e-3 4.368951309770000e-3 4.650724460529999e-3 4.950670418190001e-3
5.269961228090001e-3 5.609844526020000e-3 5.971648413340001e-3 6.356786646600000e-3
6.766764161829999e-3 7.203182955070000e-3 7.667748342250000e-3 8.162275622699999e-3
8.688697172520000e-3 9.249069995370000e-3 9.845583760209999e-3 1.048056935760000e-2
1.115650800740000e-2 1.187604095480000e-2 1.264197979020000e-2 1.345731743650000e-2
1.432523984300000e-2 1.524913843560000e-2 1.623262336790000e-2 1.727953762880000e-2
1.839397205860000e-2 1.958028133380000e-2 2.084310098390000e-2 2.218736550410000e-2
2.361832763710000e-2 2.514157889850000e-2 2.676307142590000e-2 2.848914123650000e-2
3.032653298560000e-2 3.228242632140000e-2 3.436446393950000e-2 3.658078144730000e-2
3.894003915360000e-2 4.145145590900000e-2 4.412484512920000e-2 4.697065314070000e-2
5.000000000000000e-2 5.322472294590000e-2 5.665742265330000e-2 6.031151247100000e-2
6.420127083439999e-2 6.834189705869999e-2 7.274957073090000e-2 7.744151493170000e-2
8.243606353500001e-2 8.775273284800001e-2 9.341229787160000e-2 9.943687347910000e-2
1.058500008310000e-1 1.126767393610000e-1 1.199437646980000e-1 1.276794729030000e-1
1.359140914230000e-1 1.446797972090000e-1 1.540108424460000e-1 1.639436883970000e-1
1.745171478730000e-1 1.857725368970000e-1 1.977538361460000e-1 2.105078628070000e-1
2.240844535170000e-1 2.385366590980000e-1 2.539209518590000e-1 2.702974462570000e-1
2.877301338000000e-1 3.062871330940000e-1 3.260409560170000e-1 3.470687910600000e-1
3.694528049470000e-1 3.932804636970000e-1 4.186448744060000e-1 4.456451490600000e-1
4.743867918179999e-1 5.049821112739999e-1 5.375506593040001e-1 5.722196982170001e-1
6.091246980350000e-1 6.484098658480000e-1 6.902287093029999e-1 7.347446364390001e-1
7.821315942090000e-1 8.325747481810000e-1 8.862712060730001e-1 9.434307879630000e-1
1.004276846160000e0 1.069047137960000e0 1.137994754680000e0 1.211389110630000e0
1.289516995860000e0 1.372683696770000e0 1.461214189060000e0 1.555454407550000e0
1.655772597930000e0 1.762560755730000e0 1.876236157980000e0 1.997242993790000e0
2.126054100000000e0 2.263172808810000e0 2.409134914550000e0 2.564510767330000e0
2.729907501660000e0 2.905971408870000e0 3.093390462520000e0 3.292897006620000e0
3.505270617330000e0 3.731341149160000e0 3.971991977610000e0 4.228163451040000e0
4.500856565030000e0 4.791136873850000e0 5.100138654130000e0 5.429069337040000e0
5.779214226360000e0 6.151941520860000e0 6.548707660540000e0 6.971063017720000e0
7.420657955130000e0 7.899249274760000e0 8.408707082590000e0 8.951022096080001e0
9.528313422929999e0 1.014283684150000e1 1.079699361550000e1 1.149333987670000e1
1.223459661320000e1 1.302366030190000e1 1.386361422620000e1 1.475774052430000e1
1.570953301430000e1 1.672271084590000e1 1.780123303350000e1 1.894931392610000e1
2.017143967460000e1 2.147238576200000e1 2.285723566340000e1 2.433140070990000e1
2.590064123340000e1 2.757108907540000e1 2.934927154710000e1 3.124213693510000e1
3.325708165220000e1 3.540197913860000e1 3.768521062770001e1 4.011569789640000e1
4.270293812630000e1 4.545704101500000e1 4.838876827920000e1 5.150957570710000e1
5.483165792140000e1 5.836799603060000e1 6.213240835270000e1
</PP_R>
<PP_RAB>
5.723637152730000e-5 6.092780033940000e-5 6.485730585530001e-5 6.904024270330000e-5
7.349295580000000e-5 7.823284421860000e-5 8.327842917610001e-5 8.864942640539999e-5
9.436682319470000e-5 1.004529603960000e-4 1.069316197240000e-4 1.138281166790000e-4
1.211693994740000e-4 1.289841543310000e-4 1.373029175730000e-4 1.461581949500000e-4
1.555845886500000e-4 1.656189325100000e-4 1.763004359490000e-4 1.876708371730000e-4
1.997745662710000e-4 2.126589188280001e-4 2.263742407320000e-4 2.409741249010000e-4
2.565156207000000e-4 2.730594568610000e-4 2.906702787830000e-4 3.094169011370000e-4
3.293725767560000e-4 3.506152828760000e-4 3.732280258330000e-4 3.972991654130001e-4
4.229227601140001e-4 4.501989346919999e-4 4.792342713900000e-4 5.101422264189999e-4
5.430435732829999e-4 5.780668747100000e-4 6.153489850130000e-4 6.550355848470000e-4
6.972817504640000e-4 7.422525596730000e-4 7.901237368900000e-4 8.410823397790001e-4
8.953274901880000e-4 9.530711522220001e-4 1.014538960490000e-3 1.079971101800000e-3
1.149623253660000e-3 1.223767583360000e-3 1.302693811500000e-3 1.386710344000000e-3
1.476145477320000e-3 1.571348681160000e-3 1.672691964120000e-3 1.780571327280000e-3
1.895408311600000e-3 2.017651645090000e-3 2.147778996220000e-3 2.286298840460000e-3
2.433752447100000e-3 2.590715994310000e-3 2.757802820580000e-3 2.935665821290000e-3
3.125000000000000e-3 3.326545184120000e-3 3.541088915830000e-3 3.769469529440000e-3
4.012579427149999e-3 4.271368566170000e-3 4.546848170680001e-3 4.840094683230000e-3
5.152253970940000e-3 5.484545803000000e-3 5.838268616980001e-3 6.214804592440000e-3
6.615625051910000e-3 7.042296210040000e-3 7.496485293650000e-3 7.979967056450000e-3
8.494630713930000e-3 9.042487325540000e-3 9.625677652870001e-3 1.024648052480000e-2
1.090732174210000e-2 1.161078355610000e-2 1.235961475910000e-2 1.315674142540000e-2
1.400527834480000e-2 1.490854119360000e-2 1.587005949120000e-2 1.689359039110000e-2
1.798313336250000e-2 1.914294581840000e-2 2.037755975100000e-2 2.169179944120000e-2
2.309080030920000e-2 2.458002898110000e-2 2.616530465040000e-2 2.785282181620000e-2
2.964917448860000e-2 3.156138195460001e-2 3.359691620650000e-2 3.576373113850000e-2
3.807029362720000e-2 4.052561661550000e-2 4.313929433150000e-2 4.592153977750000e-2
4.888322463810000e-2 5.203592176130000e-2 5.539195037960000e-2 5.896442424770000e-2
6.276730288500000e-2 6.681544612230001e-2 7.112467216730000e-2 7.571181941439999e-2
8.059481224120001e-2 8.579273104829999e-2 9.132588681640000e-2 9.721590047179999e-2
1.034857873710000e-1 1.101600472330000e-1 1.172647598740000e-1 1.248276871120000e-1
1.328783812500000e-1 1.414483005510000e-1 1.505709321600000e-1 1.602819229580000e-1
1.706192188540000e-1 1.816232130550000e-1 1.933369039070000e-1 2.058060629140000e-1
2.190794135830000e-1 2.332088218230000e-1 2.482494986010000e-1 2.642602156900000e-1
2.813035353140000e-1 2.994460546160000e-1 3.187586658830000e-1 3.393168335650000e-1
3.612008891470000e-1 3.844963450540000e-1 4.092942287840000e-1 4.356914386070000e-1
4.637911221960000e-1 4.937030796720000e-1 5.255441926620001e-1 5.594388810050001e-1
5.955195889330001e-1 6.339273025960001e-1 6.748121009709999e-1 7.183337422940000e-1
7.646622883260000e-1 8.139787688660000e-1 8.664758891349999e-1 9.223587827700001e-1
9.818458133930001e-1 1.045169427870000e0 1.112577064600000e0 1.184332120380000e0
1.260714979660000e0 1.342024110130000e0 1.428577228970000e0 1.520712544370000e0
1.618790077090000e0 1.723193067210000e0 1.834329471690000e0 1.952633558450000e0
2.078567603260000e0 2.212623696160000e0 2.355325664230000e0 2.507231118520000e0
2.668933632890000e0 2.841065063440000e0 3.024298017450000e0 3.219348481690000e0
3.426978620090000e0 3.647999751910000e0 3.883275522050000e0
</PP_RAB>
</PP_MESH>
<PP_NLCC columns="4">
4.669700046020000e-2 4.669700052150000e-2 4.669700059100000e-2 4.669700066960000e-2
4.669700075880000e-2 4.669700085980000e-2 4.669700097430000e-2 4.669700110410000e-2
4.669700125109999e-2 4.669700141760000e-2 4.669700160640000e-2 4.669700182020000e-2
4.669700206260000e-2 4.669700233720000e-2 4.669700264839999e-2 4.669700300100000e-2
4.669700340050000e-2 4.669700385330000e-2 4.669700436630000e-2 4.669700494750001e-2
4.669700560620000e-2 4.669700635250001e-2 4.669700719820000e-2 4.669700815650000e-2
4.669700924220000e-2 4.669701047250000e-2 4.669701186650000e-2 4.669701344590000e-2
4.669701523560000e-2 4.669701726330000e-2 4.669701956070000e-2 4.669702216380000e-2
4.669702511300001e-2 4.669702845430001e-2 4.669703223990000e-2 4.669703652860000e-2
4.669704138729999e-2 4.669704689140000e-2 4.669705312660000e-2 4.669706018960000e-2
4.669706819000000e-2 4.669707725169999e-2 4.669708751490001e-2 4.669709913820000e-2
4.669711230080001e-2 4.669712720540000e-2 4.669714408090000e-2 4.669716318580000e-2
4.669718481190000e-2 4.669720928860000e-2 4.669723698730000e-2 4.669726832630000e-2
4.669730377690000e-2 4.669734386910001e-2 4.669738919860000e-2 4.669744043420000e-2
4.669749832550000e-2 4.669756371150000e-2 4.669763752950001e-2 4.669772082430001e-2
4.669781475810000e-2 4.669792061920000e-2 4.669803983110000e-2 4.669817396030000e-2
4.669832472190000e-2 4.669849398280000e-2 4.669868375950000e-2 4.669889621080000e-2
4.669913362060000e-2 4.669939836900000e-2 4.669969288580000e-2 4.670001958250000e-2
4.670038075290000e-2 4.670077843390000e-2 4.670121421299999e-2 4.670168896640000e-2
4.670220250450000e-2 4.670275309930000e-2 4.670333685570000e-2 4.670394688290000e-2
4.670457220500000e-2 4.670519633760001e-2 4.670579543350001e-2 4.670633587640000e-2
4.670677116780000e-2 4.670703791159999e-2 4.670705065030000e-2 4.670669524240000e-2
4.670582039320000e-2 4.670422685500000e-2 4.670165369590000e-2 4.669776089860000e-2
4.669210738079999e-2 4.668412333890000e-2 4.667307559080000e-2 4.665802434890000e-2
4.663776958730001e-2 4.661078490150000e-2 4.657513651510000e-2 4.652838491190000e-2
4.646746652750000e-2 4.638855312050000e-2 4.628688699000000e-2 4.615659130839999e-2
4.599045673890000e-2 4.577970851260000e-2 4.551376263600000e-2 4.517998628160000e-2
4.476348608930000e-2 4.424695934420000e-2 4.361065678719999e-2 4.283252158960000e-2
4.188858528090000e-2 4.075371526460000e-2 3.940281518790000e-2 3.781257173430000e-2
3.596380999090000e-2 3.384445355850000e-2 3.145297513090000e-2 2.880206381470000e-2
2.592203475050000e-2 2.286329319680000e-2 1.969699635060000e-2 1.651301905580000e-2
1.341452894010000e-2 1.050899980960000e-2 7.896350545900001e-3 5.655956417210000e-3
3.835220468650000e-3 2.442751952240000e-3 1.448546962370000e-3 7.917915215050000e-4
3.944669530890000e-4 1.768434570470000e-4 7.031993926150002e-5 2.440002906710000e-5
7.252784171939998e-6 1.808615824940000e-6 3.695242121839999e-7 6.022343041140001e-8
7.595334315039999e-9 7.162689600540000e-10 4.858089504140000e-11 2.267705855090000e-12
6.930615156859999e-14 1.310612331080000e-15 0.000000000000000e0 0.000000000000000e0
0.000000000000000e0 0.000000000000000e0 0.000000000000000e0 0.000000000000000e0
0.000000000000000e0 0.000000000000000e0 0.000000000000000e0 0.000000000000000e0
0.000000000000000e0 0.000000000000000e0 0.000000000000000e0 0.000000000000000e0
0.000000000000000e0 0.000000000000000e0 0.000000000000000e0 0.000000000000000e0
0.000000000000000e0 0.000000000000000e0 0.000000000000000e0 0.000000000000000e0
0.000000000000000e0 0.000000000000000e0 0.000000000000000e0 0.000000000000000e0
0.000000000000000e0 0.000000000000000e0 0.000000000000000e0 0.000000000000000e0
0.000000000000000e0 0.000000000000000e0 0.000000000000000e0
</PP_NLCC>
<PP_LOCAL columns="4">
5.343008967060000e0 5.343008592270000e0 5.343008167590000e0 5.343007686360000e0
5.343007141050000e0 5.343006523140000e0 5.343005822950000e0 5.343005029530000e0
5.343004130470000e0 5.343003111700000e0 5.343001957290000e0 5.343000649170000e0
5.342999166870000e0 5.342997487210000e0 5.342995583900000e0 5.342993427170000e0
5.342990983280000e0 5.342988213980000e0 5.342985075960000e0 5.342981520120000e0
5.342977490820000e0 5.342972925030000e0 5.342967751320000e0 5.342961888730000e0
5.342955245550000e0 5.342947717850000e0 5.342939187840000e0 5.342929522090000e0
5.342918569360000e0 5.342906158300000e0 5.342892094740000e0 5.342876158650000e0
5.342858100720000e0 5.342837638420000e0 5.342814451630000e0 5.342788177590000e0
5.342758405250000e0 5.342724668840000e0 5.342686440560000e0 5.342643122340000e0
5.342594036510000e0 5.342538415140000e0 5.342475388100000e0 5.342403969390000e0
5.342323041760000e0 5.342231339200000e0 5.342127427190000e0 5.342009680230000e0
5.341876256450000e0 5.341725068760000e0 5.341553752310000e0 5.341359627440000e0
5.341139657840000e0 5.340890403100000e0 5.340607964930000e0 5.340287926270000e0
5.339925282310000e0 5.339514362300000e0 5.339048741040000e0 5.338521138580000e0
5.337923306660000e0 5.337245900020000e0 5.336478330700000e0 5.335608603060000e0
5.334623126940000e0 5.333506506100000e0 5.332241298710000e0 5.330807746300000e0
5.329183466860000e0 5.327343107660000e0 5.325257952360000e0 5.322895476620000e0
5.320218845560000e0 5.317186345520000e0 5.313750741940000e0 5.309858553740000e0
5.305449234040000e0 5.300454245280000e0 5.294796015870000e0 5.288386764050000e0
5.281127172930000e0 5.272904899380000e0 5.263592897690000e0 5.253047537410000e0
5.241106493160000e0 5.227586383240000e0 5.212280132530000e0 5.194954035230000e0
5.175344493550000e0 5.153154410150000e0 5.128049216580000e0 5.099652526360000e0
5.067541412300000e0 5.031241323870000e0 4.990220683910000e0 4.943885238360000e0
4.891572279820000e0 4.832544931740000e0 4.765986769540000e0 4.690997175180000e0
4.606587980630000e0 4.511682162590000e0 4.405115614690000e0 4.285643352330000e0
4.151951902210000e0 4.002680089360000e0 3.836450935960000e0 3.651917881820000e0
3.447828935970000e0 3.223112524890000e0 2.976988491880000e0 2.709106606060000e0
2.419712653230000e0 2.109838238130000e0 1.781504397610000e0 1.437920785440000e0
1.083651825340000e0 7.247100222450000e-1 3.685270942700000e-1 2.374988948880000e-2
-3.001842407870000e-1 -5.937129555469999e-1 -8.480297324780000e-1 -1.056089805460000e0
-1.213580182260000e0 -1.319639597200000e0 -1.377110667890000e0 -1.392179079890000e0
-1.373405420730000e0 -1.330345499560000e0 -1.272107373010000e0 -1.206224940150000e0
-1.138103844720000e0 -1.071066506790000e0 -1.006808166300000e0 -9.459848604870000e-1
-8.887106401470000e-1 -8.348736840220001e-1 -7.842922761460000e-1 -7.367745188200000e-1
-6.921356157520000e-1 -6.502012391260000e-1 -6.108075375080000e-1 -5.738005796009999e-1
-5.390357599270001e-1 -5.063772341990001e-1 -4.756973885180000e-1 -4.468763407200000e-1
-4.198014719350000e-1 -3.943669865240000e-1 -3.704734986830000e-1 -3.480276440890000e-1
-3.269417150770000e-1 -3.071333179220000e-1 -2.885250508810000e-1 -2.710442017470000e-1
-2.546224637210000e-1 -2.391956685050000e-1 -2.247035355620000e-1 -2.110894365670000e-1
-1.983001741330000e-1 -1.862857739390000e-1 -1.749992894550000e-1 -1.643966184970000e-1
-1.544363308980000e-1 -1.450795066190000e-1 -1.362895836640000e-1 -1.280322152200000e-1
-1.202751354380000e-1 -1.129880333620000e-1 -1.061424344820000e-1 -9.971158947140001e-2
-9.367036966330000e-2 -8.799516886030000e-2 -8.266381109179999e-2 -7.765546396160000e-2
-7.295055724440001e-2 -6.853070641490000e-2 -6.437864081000000e-2
</PP_LOCAL>
<PP_NONLOCAL>
<PP_BETA.1 index="1" label="4S" angular_momentum="1" cutoff_radius_index="150" cutoff_radius="3.090000000000e0" ultrasoft_cutoff_radius="0.000000000000e0">
-2.256391634370000e-6 -2.556826248639999e-6 -2.897263313840000e-6 -3.283029047590000e-6
-3.720161222500000e-6 -4.215496711380000e-6 -4.776785448350001e-6 -5.412808452829999e-6
-6.133516849829999e-6 -6.950185789970000e-6 -7.875592412790001e-6 -8.924214296500001e-6
-1.011245736800000e-5 -1.145891123960000e-5 -1.298464077700000e-5 -1.471351541920000e-5
-1.667258251360000e-5 -1.889248957410000e-5 -2.140796663170000e-5 -2.425836528750000e-5
-2.748827630160000e-5 -3.114822486440000e-5 -3.529546791850000e-5 -3.999487776890000e-5
-4.531996783979999e-5 -5.135403176239999e-5 -5.819145502770001e-5 -6.593918391690000e-5
-7.471839567860000e-5 -8.466640035719999e-5 -9.593877587020000e-5 -1.087118073290000e-4
-1.231852321360000e-4 -1.395853651660000e-4 -1.581686274610000e-4 -1.792255458500000e-4
-2.030852924720000e-4 -2.301208195240001e-4 -2.607546342480000e-4 -2.954654638220000e-4
-3.347955973390000e-4 -3.793594231600000e-4 -4.298529226610000e-4 -4.870645242350000e-4
-5.518872466180000e-4 -6.253326861600001e-4 -7.085465718469999e-4 -8.028264739050000e-4
-9.096419450630000e-4 -1.030656998690000e-3 -1.167755874440000e-3 -1.323071785280000e-3
-1.499019671840000e-3 -1.698332916980000e-3 -1.924105268150000e-3 -2.179836818040000e-3
-2.469488108830000e-3 -2.797537980790000e-3 -3.169051845680000e-3 -3.589755784560000e-3
-4.066120698170000e-3 -4.605457642600000e-3 -5.216021873350001e-3 -5.907132002520000e-3
-6.689300599920001e-3 -7.574379712519999e-3 -8.575723260070001e-3 -9.708365021570000e-3
-1.098921489030000e-2 -1.243727355110000e-2 -1.407386633070000e-2 -1.592289493560000e-2
-1.801110934080000e-2 -2.036839067460000e-2 -2.302805493070000e-2 -2.602715998760000e-2
-2.940680982870000e-2 -3.321245710020000e-2 -3.749417829700000e-2 -4.230690827560000e-2
-4.771060067950000e-2 -5.377030509349999e-2 -6.055608711080001e-2 -6.814275720560000e-2
-7.660935645220000e-2 -8.603828809420000e-2 -9.651402397120000e-2 -1.081212629390000e-1
-1.209424176710000e-1 -1.350542695890000e-1 -1.505236647050000e-1 -1.674020533750000e-1
-1.857187680710000e-1 -2.054728710700000e-1 -2.266236461580000e-1 -2.490795601810000e-1
-2.726861784060000e-1 -2.972133723210000e-1 -3.223423817140000e-1 -3.476541843490000e-1
-3.726203966770000e-1 -3.965988755170000e-1 -4.188362849680000e-1 -4.384801400440000e-1
-4.546030098590000e-1 -4.662406266180000e-1 -4.724445357990000e-1 -4.723482381610000e-1
-4.652425251050000e-1 -4.506532638760000e-1 -4.284115207970000e-1 -3.987045785800000e-1
-3.620967899820000e-1 -3.195129328420000e-1 -2.721840896660000e-1 -2.215655775410000e-1
-1.692461551160000e-1 -1.168733250590000e-1 -6.611642988720000e-2 -1.867426800530000e-2
2.369318372010000e-2 5.916153793159999e-2 8.594177855280000e-2 1.025459798190000e-1
1.082159599560000e-1 1.033946452730000e-1 9.000485779960000e-2 7.128387858320000e-2
5.108569210700001e-2 3.286403298100000e-2 1.879231796190000e-2 9.442210934990001e-3
4.113617549870000e-3 1.530266390750000e-3 4.775369419830000e-4 1.224792967360000e-4
2.521832111190000e-5 4.057488460300000e-6 4.946704660570001e-7 4.412378155940000e-8
2.767201083190000e-9 1.166313639060000e-10 3.138968166220000e-12 5.090111594220001e-14
4.880239545810000e-16 0.000000000000000e0 0.000000000000000e0 0.000000000000000e0
0.000000000000000e0 0.000000000000000e0 0.000000000000000e0 0.000000000000000e0
0.000000000000000e0 0.000000000000000e0 0.000000000000000e0 0.000000000000000e0
0.000000000000000e0 0.000000000000000e0 0.000000000000000e0 0.000000000000000e0
0.000000000000000e0 0.000000000000000e0 0.000000000000000e0 0.000000000000000e0
0.000000000000000e0 0.000000000000000e0 0.000000000000000e0 0.000000000000000e0
0.000000000000000e0 0.000000000000000e0 0.000000000000000e0 0.000000000000000e0
0.000000000000000e0 0.000000000000000e0 0.000000000000000e0 0.000000000000000e0
0.000000000000000e0 0.000000000000000e0 0.000000000000000e0
</PP_BETA.1>
<PP_DIJ>
2.133871298360000e2
</PP_DIJ>
</PP_NONLOCAL>
<PP_PSWFC>
<PP_CHI.1 index="1" label="4S" l="0" occupation="2.000000000000e0" n="0" pseudo_energy="0.000000000000e0" cutoff_radius="3.090000000000e0" ultrasoft_cutoff_radius="0.000000000000e0">
3.550319600000000e-5 3.779295500000001e-5 4.023039100000000e-5 4.282502800000000e-5
4.558700700000001e-5 4.852711999999999e-5 5.165685499999999e-5 5.498844400000000e-5
5.853490400000001e-5 6.231009400000000e-5 6.632876800000000e-5 7.060662800000000e-5
7.516039200000000e-5 8.000785600000002e-5 8.516796299999998e-5 9.066087800000000e-5
9.650806699999999e-5 1.027323800000000e-4 1.093581500000000e-4 1.164112600000000e-4
1.239192900000000e-4 1.319115700000000e-4 1.404193500000000e-4 1.494758700000000e-4
1.591165500000000e-4 1.693790600000000e-4 1.803035200000000e-4 1.919326500000000e-4
2.043119000000000e-4 2.174896800000000e-4 2.315175200000000e-4 2.464502800000000e-4
2.623463500000000e-4 2.792679300000000e-4 2.972812000000000e-4 3.164566500000000e-4
3.368693200000000e-4 3.585991000000000e-4 3.817310699999999e-4 4.063558200000000e-4
4.325698000000000e-4 4.604757299999999e-4 4.901830000000000e-4 5.218081100000001e-4
5.554751400000001e-4 5.913162500000000e-4 6.294722100000000e-4 6.700930100000001e-4
7.133384500000001e-4 7.593787700000000e-4 8.083954400000001e-4 8.605818600000001e-4
9.161441999999999e-4 9.753022999999999e-4 1.038290600000000e-3 1.105359100000000e-3
1.176774800000000e-3 1.252822400000000e-3 1.333806000000000e-3 1.420050500000000e-3
1.511902900000000e-3 1.609734400000000e-3 1.713941900000000e-3 1.824950400000000e-3
1.943215100000000e-3 2.069223800000000e-3 2.203500100000000e-3 2.346606200000000e-3
2.499146800000000e-3 2.661772500000000e-3 2.835184900000000e-3 3.020141100000000e-3
3.217460100000000e-3 3.428028900000000e-3 3.652810200000000e-3 3.892851400000000e-3
4.149294300000000e-3 4.423387400000000e-3 4.716498700000001e-3 5.030132600000000e-3
5.365947999999999e-3 5.725780500000001e-3 6.111668400000000e-3 6.525883600000000e-3
6.970967500000000e-3 7.449775100000000e-3 7.965526000000001e-3 8.521866599999999e-3
9.122943600000001e-3 9.773493000000000e-3 1.047894600000000e-2 1.124555900000000e-2
1.208056500000000e-2 1.299236400000000e-2 1.399074500000000e-2 1.508716600000000e-2
1.629507700000000e-2 1.763032900000000e-2 1.911165800000000e-2 2.076127900000000e-2
2.260560400000000e-2 2.467610700000000e-2 2.701037600000000e-2 2.965336900000000e-2
3.265892600000000e-2 3.609154800000000e-2 4.002849000000000e-2 4.456216800000000e-2
4.980286500000000e-2 5.588165700000001e-2 6.295340900000000e-2 7.119955099999999e-2
8.083012099999999e-2 9.208433900000001e-2 1.052285700000000e-1 1.205501500000000e-1
1.383451100000000e-1 1.588976800000000e-1 1.824493100000000e-1 2.091562600000000e-1
2.390363700000000e-1 2.719090900000000e-1 3.073375500000000e-1 3.445857600000000e-1
3.826071300000000e-1 4.200786200000000e-1 4.554872300000000e-1 4.872613800000000e-1
5.139244700000000e-1 5.342377500000000e-1 5.473015800000000e-1 5.525986600000000e-1
5.499835300000000e-1 5.396389500000000e-1 5.220230800000000e-1 4.978230100000000e-1
4.679172200000000e-1 4.333412700000000e-1 3.952494100000000e-1 3.548684400000000e-1
3.134447800000000e-1 2.721864000000000e-1 2.322063000000000e-1 1.944708900000000e-1
1.597581700000000e-1 1.286297000000000e-1 1.014190900000000e-1 7.823814300000000e-2
5.899919499999999e-2 4.345068700000000e-2 3.122095700000000e-2 2.186487700000000e-2
1.490805700000000e-2 9.884447899999998e-3 6.364719600000001e-3 3.974533600000000e-3
2.403173800000000e-3 1.404568500000000e-3 7.916560200000000e-4 4.293693500000001e-4
2.237386800000000e-4 1.117711900000000e-4 5.338176299999999e-5 2.430199000000000e-5
1.051231900000000e-5 4.306144800000000e-6 1.664314400000000e-6 6.045787600000001e-7
2.055619000000000e-7 6.512998700000000e-8 1.913995500000000e-8 5.190441699999999e-9
1.292568000000000e-9 2.926924700000000e-10 5.866421399999999e-11 0.000000000000000e0
0.000000000000000e0 0.000000000000000e0 0.000000000000000e0
</PP_CHI.1>
<PP_CHI.2 index="2" label="4P" l="1" occupation="0.000000000000e0" n="0" pseudo_energy="0.000000000000e0" cutoff_radius="6.927646926082e-310" ultrasoft_cutoff_radius="6.927646926082e-310">
1.332459900000000e-7 1.509874800000000e-7 1.710912300000000e-7 1.938717700000000e-7
2.196856500000000e-7 2.489366099999999e-7 2.820823100000000e-7 3.196413000000001e-7
3.622012300000001e-7 4.104279400000000e-7 4.650759700000001e-7 5.270002800000000e-7
5.971697100000000e-7 6.766820600000000e-7 7.667813100000000e-7 8.688770700000001e-7
9.845666300000000e-7 1.115659900000000e-6 1.264207900000000e-6 1.432534600000000e-6
1.623273400000000e-6 1.839408200000000e-6 2.084320500000000e-6 2.361841600000000e-6
2.676313200000000e-6 3.032654700000000e-6 3.436440699999999e-6 3.893987800000000e-6
4.412453300000000e-6 4.999947600000000e-6 5.665660400000000e-6 6.420004899999999e-6
7.274780100000000e-6 8.243355600000001e-6 9.340880300000000e-6 1.058451900000000e-5
1.199372100000000e-5 1.359052400000000e-5 1.539989600000000e-5 1.745013000000000e-5
1.977327900000000e-5 2.240566200000000e-5 2.538842700000000e-5 2.876819500000000e-5
3.259778100000000e-5 3.693702500000000e-5 4.185371700000001e-5 4.742465100000000e-5
5.373682499999999e-5 6.088878200000001e-5 6.899214899999999e-5 7.817335699999999e-5
8.857560399999999e-5 1.003610600000000e-4 1.137133900000000e-4 1.288405300000000e-4
1.459779600000000e-4 1.653922200000000e-4 1.873850700000000e-4 2.122980300000000e-4
2.405175600000000e-4 2.724809599999999e-4 3.086828600000000e-4 3.496827000000000e-4
3.961130100000000e-4 4.486887299999999e-4 5.082177300000001e-4 5.756125100000000e-4
6.519033100000000e-4 7.382527300000000e-4 8.359720200000000e-4 9.465391100000000e-4
1.071618700000000e-3 1.213084100000000e-3 1.373041700000000e-3 1.553857400000000e-3
1.758185100000000e-3 1.988997900000000e-3 2.249621200000000e-3 2.543767799999999e-3
2.875574100000000e-3 3.249638200000000e-3 3.671057100000001e-3 4.145462900000000e-3
4.679057200000000e-3 5.278639699999999e-3 5.951629800000000e-3 6.706077199999999e-3
7.550657700000000e-3 8.494648199999999e-3 9.547876700000000e-3 1.072063800000000e-2
1.202357000000000e-2 1.346747900000000e-2 1.506311400000000e-2 1.682086800000000e-2
1.875041900000000e-2 2.086030400000000e-2 2.315742000000000e-2 2.564649200000000e-2
2.832951700000000e-2 3.120524600000000e-2 3.426876800000000e-2 3.751128600000000e-2
4.092022300000000e-2 4.447979299999999e-2 4.817219600000000e-2 5.197962800000000e-2
5.588722600000001e-2 5.988708200000000e-2 6.398333100000000e-2 6.819824600000000e-2
7.257912200000000e-2 7.720557299999999e-2 8.219673999999999e-2 8.771772499999999e-2
9.398439300000000e-2 1.012654400000000e-1 1.098801900000000e-1 1.201900700000000e-1
1.325810000000000e-1 1.474335700000000e-1 1.650783200000000e-1 1.857359300000000e-1
2.094471600000000e-1 2.360042700000000e-1 2.649034700000000e-1 2.953395600000000e-1
3.262571700000000e-1 3.564548400000000e-1 3.847170200000000e-1 4.099356400000000e-1
4.311891100000000e-1 4.477683600000000e-1 4.591644800000000e-1 4.650438000000000e-1
4.652308000000000e-1 4.597050700000000e-1 4.486071300000000e-1 4.322445500000000e-1
4.110916600000000e-1 3.857797800000000e-1 3.570764300000000e-1 3.258539400000000e-1
2.930486000000000e-1 2.596132300000000e-1 2.264662300000000e-1 1.944436900000000e-1
1.642584100000000e-1 1.364701000000000e-1 1.114693400000000e-1 8.947609099999999e-2
7.055120100000000e-2 5.461829700000001e-2 4.149232700000000e-2 3.091091900000000e-2
2.256444300000000e-2 1.612663800000000e-2 1.126566300000000e-2 7.685307200000000e-3
5.118117700000000e-3 3.323553700000001e-3 2.100915700000000e-3 1.290479300000000e-3
7.687803800000001e-4 4.432825000000000e-4 2.468572100000000e-4 1.324631900000000e-4
6.832169700000001e-5 3.378257600000000e-5 1.596898700000000e-5 7.194459400000000e-6
3.079401200000000e-6 1.247326800000000e-6 4.757935800000000e-7 0.000000000000000e0
0.000000000000000e0 0.000000000000000e0 0.000000000000000e0
</PP_CHI.2>
</PP_PSWFC>
<PP_RHOATOM>
2.520953852429999e-9 2.856614895259999e-9 3.236968720030000e-9 3.667966046400000e-9
4.156350414440000e-9 4.709762750990000e-9 5.336861336979998e-9 6.047457947079998e-9
6.852669972580000e-9 7.765095628579999e-9 8.799010928800000e-9 9.970591835060000e-9
1.129816905120000e-8 1.280251404340000e-8 1.450716384310000e-8 1.643878959950000e-8
1.862761399220000e-8 2.110788380090000e-8 2.391840994280000e-8 2.710316290960000e-8
3.071198086820000e-8 3.480132459970001e-8 3.943518770879999e-8 4.468607142449999e-8
5.063615296780001e-8 5.737853193300001e-8 6.501871864880000e-8 7.367628427200001e-8
8.348670496320000e-8 9.460352181299999e-8 1.072007241340000e-7 1.214754810240000e-7
1.376512147170000e-7 1.559811534530000e-7 1.767522237470000e-7 2.002896226580000e-7
2.269618775150000e-7 2.571866290420000e-7 2.914372196070000e-7 3.302501048960000e-7
3.742332637440000e-7 4.240757958380000e-7 4.805587469780001e-7 5.445674073240001e-7
6.171052623160000e-7 6.993098150279998e-7 7.924705263250001e-7 8.980492841020002e-7
1.017703488500000e-6 1.153312232650000e-6 1.307006374830000e-6 1.481202275520000e-6
1.678640390390000e-6 1.902429152770000e-6 2.156094740099999e-6 2.443637479910000e-6
2.769597859830000e-6 3.139127931880000e-6 3.558076891270000e-6 4.033086845100001e-6
4.571700758060000e-6 5.182489677090000e-6 5.875193673150001e-6 6.660887924920001e-6
7.552169849739999e-6 8.563374268970001e-6 9.710825381400001e-6 1.101312131580000e-5
1.249146945590000e-5 1.417006568350000e-5 1.607654683440000e-5 1.824250452780000e-5
2.070409899020000e-5 2.350276427850000e-5 2.668604471440000e-5 3.030858404500000e-5