<UPF version="2.0.1">
<PP_INFO>
Generated by new atomic code, or converted to UPF format
Author:
Generation date:
Pseudopotential type: NC
Element: Cl
Functional:  SLA  PZ   NOGX NOGC
Suggested minimum cutoff for wavefunctions:   0. Ry
Suggested minimum cutoff for charge density:   0. Ry
The Pseudo was generated with a Non-Relativistic Calculation
L component and cutoff radius for Local Potential:  0   0.0000
Valence configuration:
nl pn  l   occ       Rcut    Rcut US       E pseu
3S  0  0  2.00      0.000      0.000     0.000000
3P  0  1  5.00      0.000      0.000     0.000000
Generation configuration: not available.
</PP_INFO>
<!--
END OF HUMAN READABLE SECTION
-->
<PP_HEADER generated="Generated by new atomic code, or converted to UPF format" author="" date="" comment="" element="Cl" pseudo_type="NC" relativistic="no" is_ultrasoft="false" is_paw="false" is_coulomb="false" has_so="false" has_wfc="false" has_gipaw="false" paw_as_gipaw="false" core_correction="false" functional=" SLA  PZ   NOGX NOGC" z_valence="7.000000000000e0" total_psenergy="0.000000000000e0" wfc_cutoff="0.000000000000e0" rho_cutoff="0.000000000000e0" l_max="1" l_max_rho="0" l_local="0" mesh_size="479" number_of_wfc="2" number_of_proj="2"/>
<PP_MESH dx="2.500000000000e-2" mesh="479" xmin="-4.999999999999e0" rmax="6.136174871650e1" zmesh="1.700000000000e1">
<PP_R>
3.963498234759999e-4 4.063834670270000e-4 4.166711134740001e-4 4.272191929300000e-4
4.380342982899999e-4 4.491231893449999e-4 4.604927970129999e-4 4.721502276700001e-4
4.841027675890000e-4 4.963578874970001e-4 5.089232472420000e-4 5.218067005840000e-4
5.350163001000000e-4 5.485603022189999e-4 5.624471723850001e-4 5.766855903420000e-4
5.912844555670000e-4 6.062528928240000e-4 6.216002578740000e-4 6.373361433199999e-4
6.534703846020000e-4 6.700130661479999e-4 6.869745276700000e-4 7.043653706359999e-4
7.221964648860000e-4 7.404789554370001e-4 7.592242694399999e-4 7.784441233260000e-4
7.981505301289999e-4 8.183558069960000e-4 8.390725828820001e-4 8.603138064470000e-4
8.820927541460000e-4 9.044230385310000e-4 9.273186167559999e-4 9.507937993040001e-4
9.748632589270001e-4 9.995420398220000e-4 1.024845567030000e-3 1.050789656080000e-3
1.077390522870000e-3 1.104664793800000e-3 1.132629516200000e-3 1.161302168910000e-3
1.190700673280000e-3 1.220843404340000e-3 1.251749202260000e-3 1.283437384180000e-3
1.315927756250000e-3 1.349240626000000e-3 1.383396815060000e-3 1.418417672170000e-3
1.454325086490000e-3 1.491141501340000e-3 1.528889928160000e-3 1.567593960960000e-3
1.607277791020000e-3 1.647966222010000e-3 1.689684685540000e-3 1.732459257010000e-3
1.776316671900000e-3 1.821284342540000e-3 1.867390375180000e-3 1.914663587590000e-3
1.963133527080000e-3 2.012830488920000e-3 2.063785535340000e-3 2.116030514910000e-3
2.169598082430000e-3 2.224521719370000e-3 2.280835754810000e-3 2.338575386840000e-3
2.397776704610000e-3 2.458476710880000e-3 2.520713345120000e-3 2.584525507260000e-3
2.649953081970000e-3 2.717036963630000e-3 2.785819081830000e-3 2.856342427650000e-3
2.928651080460000e-3 3.002790235539999e-3 3.078806232260000e-3 3.156746583100000e-3
3.236660003320000e-3 3.318596441400000e-3 3.402607110280000e-3 3.488744519380000e-3
3.577062507370000e-3 3.667616275860000e-3 3.760462423920000e-3 3.855658983410000e-3
3.953265455280000e-3 4.053342846740000e-3 4.155953709440000e-3 4.261162178490000e-3
4.369034012610000e-3 4.479636635210000e-3 4.593039176540000e-3 4.709312516870000e-3
4.828529330820000e-3 4.950764132780000e-3 5.076093323489999e-3 5.204595237770000e-3
5.336350193490000e-3 5.471440541800000e-3 5.609950718559999e-3 5.751967297140000e-3
5.897579042520000e-3 6.046876966780000e-3 6.199954385990001e-3 6.356906978520000e-3
6.517832844840000e-3 6.682832568870001e-3 6.852009280790000e-3 7.025468721569999e-3
7.203319309000000e-3 7.385672205480000e-3 7.572641387520001e-3 7.764343716930000e-3
7.960899013919999e-3 8.162430131940001e-3 8.369063034500000e-3 8.580926873899999e-3
8.798154071920001e-3 9.020880402640000e-3 9.249245077270000e-3 9.483390831159999e-3
9.723464013030000e-3 9.969614676439999e-3 1.022199667360000e-2 1.048076775130000e-2
1.074608965020000e-2 1.101812820480000e-2 1.129705344830000e-2 1.158303971790000e-2
1.187626576440000e-2 1.217691486360000e-2 1.248517493100000e-2 1.280123863910000e-2
1.312530353810000e-2 1.345757217910000e-2 1.379825224080000e-2 1.414755665930000e-2
1.450570376130000e-2 1.487291740030000e-2 1.524942709680000e-2 1.563546818170000e-2
1.603128194320000e-2 1.643711577770000e-2 1.685322334470000e-2 1.727986472490000e-2
1.771730658310000e-2 1.816582233460000e-2 1.862569231640000e-2 1.909720396230000e-2
1.958065198220000e-2 2.007633854710000e-2 2.058457347710000e-2 2.110567443560000e-2
2.163996712770000e-2 2.218778550370000e-2 2.274947196790000e-2 2.332537759260000e-2
2.391586233770000e-2 2.452129527520000e-2 2.514205482050000e-2 2.577852896850001e-2
2.643111553630000e-2 2.710022241170000e-2 2.778626780830000e-2 2.848968052680000e-2
2.921090022300000e-2 2.995037768280000e-2 3.070857510360000e-2 3.148596638350000e-2
3.228303741730000e-2 3.310028640040000e-2 3.393822414000000e-2 3.479737437450000e-2
3.567827410070000e-2 3.658147390970000e-2 3.750753833070000e-2 3.845704618410000e-2
3.943059094330001e-2 4.042878110539999e-2 4.145224057170000e-2 4.250160903780000e-2
4.357754239299999e-2 4.468071313090000e-2 4.581181076890000e-2 4.697154228000000e-2
4.816063253399999e-2 4.937982475110000e-2 5.062988096620000e-2 5.191158250500000e-2
5.322573047270001e-2 5.457314625459999e-2 5.595467202949999e-2 5.737117129580001e-2
5.882352941180001e-2 6.031265414850000e-2 6.183947625740000e-2 6.340495005199999e-2
6.501005400440000e-2 6.665579135690001e-2 6.834319074870000e-2 7.007330685960000e-2
7.184722106820001e-2 7.366604212890000e-2 7.553090686400000e-2 7.744298087460000e-2
7.940345926920001e-2 8.141356741060001e-2 8.347456168200001e-2 8.558773027169998e-2
8.775439397890000e-2 8.997590703900000e-2 9.225365797000000e-2 9.458907044030001e-2
9.698360415880000e-2 9.943875578700000e-2 1.019560598750000e-1 1.045370898180000e-1
1.071834588470000e-1 1.098968210250000e-1 1.126788722950000e-1 1.155313515280000e-1
1.184560416160000e-1 1.214547705860000e-1 1.245294127420000e-1 1.276818898340000e-1
1.309141722640000e-1 1.342282803130000e-1 1.376262854070000e-1 1.411103114100000e-1
1.446825359500000e-1 1.483451917860000e-1 1.521005681950000e-1 1.559510124110000e-1
1.598989310860000e-1 1.639467917980000e-1 1.680971245920000e-1 1.723525235610000e-1
1.767156484670000e-1 1.811892264070000e-1 1.857760535110000e-1 1.904789966960000e-1
1.953009954550000e-1 2.002450636940000e-1 2.053142916150000e-1 2.105118476530000e-1
2.158409804480000e-1 2.213050208820000e-1 2.269073841590000e-1 2.326515719370000e-1
2.385411745200000e-1 2.445798731030000e-1 2.507714420690000e-1 2.571197513490000e-1
2.636287688430000e-1 2.703025629000000e-1 2.771453048580000e-1 2.841612716540000e-1
2.913548484940000e-1 2.987305315990000e-1 3.062929310110000e-1 3.140467734750000e-1
3.219969053960000e-1 3.301482958640000e-1 3.385060397650000e-1 3.470753609600000e-1
3.558616155540000e-1 3.648702952410000e-1 3.741070307410000e-1 3.835775953140000e-1
3.932879083690000e-1 4.032440391710000e-1 4.134522106230000e-1 4.239188031660000e-1
4.346503587610000e-1 4.456535849790000e-1 4.569353591950000e-1 4.685027328840000e-1
4.803629360330000e-1 4.925233816550000e-1 5.049916704220000e-1 5.177755954230000e-1
5.308831470260000e-1 5.443225178770001e-1 5.581021080210000e-1 5.722305301510000e-1
5.867166149890000e-1 6.015694168110000e-1 6.167982191019999e-1 6.324125403570000e-1
6.484221400380000e-1 6.648370246640000e-1 6.816674540720000e-1 6.989239478290000e-1
7.166172918060000e-1 7.347585449179999e-1 7.533590460389999e-1 7.724304210880000e-1
7.919845902940001e-1 8.120337756510001e-1 8.325905085520001e-1 8.536676376230000e-1
8.752783367570000e-1 8.974361133450000e-1 9.201548167169999e-1 9.434486468030000e-1
9.673321630060000e-1 9.918202932990001e-1 1.016928343560000e0 1.042672007140000e0
1.069067374670000e0 1.096130944110000e0 1.123879631070000e0 1.152330779390000e0
1.181502171950000e0 1.211412041840000e0 1.242079083680000e0 1.273522465380000e0
1.305761840080000e0 1.338817358440000e0 1.372709681230000e0 1.407459992260000e0
1.443090011590000e0 1.479622009170000e0 1.517078818660000e0 1.555483851800000e0
1.594861112980000e0 1.635235214270000e0 1.676631390810000e0 1.719075516540000e0
1.762594120440000e0 1.807214403030000e0 1.852964253460000e0 1.899872266860000e0
1.947967762280000e0 1.997280800960000e0 2.047842205150000e0 2.099683577390000e0
2.152837320220000e0 2.207336656450000e0 2.263215649940000e0 2.320509226890000e0
2.379253197650000e0 2.439484279110000e0 2.501240117650000e0 2.564559312690000e0
2.629481440780000e0 2.696047080370000e0 2.764297837150000e0 2.834276370060000e0
2.906026417970000e0 2.979592826990000e0 3.055021578520000e0 3.132359817980000e0
3.211655884300000e0 3.292959340100000e0 3.376321002670000e0 3.461792975790000e0
3.549428682200000e0 3.639282897080000e0 3.731411782240000e0 3.825872921240000e0
3.922725355350000e0 4.022029620500000e0 4.123847785100000e0 4.228243488800000e0
4.335281982330000e0 4.445030168220000e0 4.557556642660000e0 4.672931738370000e0
4.791227568530000e0 4.912518071880000e0 5.036879058950000e0 5.164388259400000e0
5.295125370620000e0 5.429172107570000e0 5.566612253820000e0 5.707531713940000e0
5.852018567170000e0 6.000163122510000e0 6.152057975120000e0 6.307798064240000e0
6.467480732480000e0 6.631205786710000e0 6.799075560420000e0 6.971194977690000e0
7.147671618750000e0 7.328615787250000e0 7.514140579180000e0 7.704361953580000e0
7.899398805000000e0 8.099373037820000e0 8.304409642440000e0 8.514636773419999e0
8.730185829560000e0 8.951191536040000e0 9.177792028610000e0 9.410128939960000e0
9.648347488230000e0 9.892596567760000e0 1.014302884220000e1 1.039980083980000e1
1.066307305150000e1 1.093301003090000e1 1.120978049760000e1 1.149355744190000e1
1.178451823380000e1 1.208284473320000e1 1.238872340390000e1 1.270234543000000e1
1.302390683550000e1 1.335360860680000e1 1.369165681810000e1 1.403826276060000e1
1.439364307440000e1 1.475801988360000e1 1.513162093560000e1 1.551467974330000e1
1.590743573100000e1 1.631013438370000e1 1.672302740140000e1 1.714637285560000e1
1.758043535100000e1 1.802548619080000e1 1.848180354620000e1 1.894967263050000e1
1.942938587700000e1 1.992124312220000e1 2.042555179290000e1 2.094262709830000e1
2.147279222740000e1 2.201637855060000e1 2.257372582710000e1 2.314518241710000e1
2.373110549960000e1 2.433186129550000e1 2.494782529680000e1 2.557938250100000e1
2.622692765190000e1 2.689086548640000e1 2.757161098720000e1 2.826958964240000e1
2.898523771140000e1 2.971900249750000e1 3.047134262750000e1 3.124272833870000e1
3.203364177210000e1 3.284457727440000e1 3.367604170670000e1 3.452855476130000e1
3.540264928660001e1 3.629887162020001e1 3.721778193010000e1 3.815995456530000e1
3.912597841440000e1 4.011645727360000e1 4.113201022450000e1 4.217327202070000e1
4.324089348480000e1 4.433554191500000e1 4.545790150210000e1 4.660867375740000e1
4.778857795100000e1 4.899835156160001e1 5.023875073680000e1 5.151055076670001e1
5.281454656770000e1 5.415155317950000e1 5.552240627480000e1 5.692796268150000e1
5.836910091790000e1 5.984672174260001e1 6.136174871650001e1
</PP_R>
<PP_RAB>
9.908745586889999e-6 1.015958667570000e-5 1.041677783680000e-5 1.068047982330000e-5
1.095085745720000e-5 1.122807973360000e-5 1.151231992530000e-5 1.180375569180000e-5
1.210256918970000e-5 1.240894718740000e-5 1.272308118110000e-5 1.304516751460000e-5
1.337540750250000e-5 1.371400755550000e-5 1.406117930960000e-5 1.441713975860000e-5
1.478211138920000e-5 1.515632232060000e-5 1.554000644680000e-5 1.593340358300000e-5
1.633675961510000e-5 1.675032665370000e-5 1.717436319180000e-5 1.760913426590000e-5
1.805491162220000e-5 1.851197388590000e-5 1.898060673600000e-5 1.946110308310000e-5
1.995376325320000e-5 2.045889517490000e-5 2.097681457209999e-5 2.150784516120000e-5
2.205231885360000e-5 2.261057596330000e-5 2.318296541890000e-5 2.376984498260000e-5
2.437158147320000e-5 2.498855099550001e-5 2.562113917570001e-5 2.626974140189999e-5
2.693476307170000e-5 2.761661984510000e-5 2.831573790500000e-5 2.903255422280000e-5
2.976751683210000e-5 3.052108510840000e-5 3.129373005639999e-5 3.208593460450000e-5
3.289819390610000e-5 3.373101564990000e-5 3.458492037650001e-5 3.546044180410000e-5
3.635812716230000e-5 3.727853753340000e-5 3.822224820410000e-5 3.918984902410001e-5
4.018194477540000e-5 4.119915555030000e-5 4.224211713860000e-5 4.331148142520000e-5
4.440791679750000e-5 4.553210856350000e-5 4.668475937950000e-5 4.786658968989999e-5
4.907833817699999e-5 5.032076222300001e-5 5.159463838360000e-5 5.290076287270001e-5
5.423995206059999e-5 5.561304298430000e-5 5.702089387019999e-5 5.846438467090000e-5
5.994441761519999e-5 6.146191777189999e-5 6.301783362800001e-5 6.461313768150001e-5
6.624882704930001e-5 6.792592409069998e-5 6.964547704579999e-5 7.140856069120000e-5
7.321627701160001e-5 7.506975588849998e-5 7.697015580650000e-5 7.891866457750001e-5
8.091650008300000e-5 8.296491103500001e-5 8.506517775710000e-5 8.721861298449999e-5
8.942656268410001e-5 9.169040689660001e-5 9.401156059809999e-5 9.639147458530001e-5
9.883163638199999e-5 1.013335711690000e-4 1.038988427360000e-4 1.065290544620000e-4
1.092258503150000e-4 1.119909158800000e-4 1.148259794130000e-4 1.177328129220000e-4
1.207132332700000e-4 1.237691033200000e-4 1.269023330870000e-4 1.301148809440000e-4
1.334087548370000e-4 1.367860135450000e-4 1.402487679640000e-4 1.437991824280000e-4
1.474394760630000e-4 1.511719241700000e-4 1.549988596500000e-4 1.589226744630000e-4
1.629458211210000e-4 1.670708142220000e-4 1.713002320200000e-4 1.756367180390000e-4
1.800829827250000e-4 1.846418051370000e-4 1.893160346880000e-4 1.941085929230000e-4
1.990224753480000e-4 2.040607532980000e-4 2.092265758630000e-4 2.145231718470000e-4
2.199538517980000e-4 2.255220100660000e-4 2.312311269320000e-4 2.370847707790000e-4
2.430866003260000e-4 2.492403669110000e-4 2.555499168390000e-4 2.620191937840000e-4
2.686522412540000e-4 2.754532051210000e-4 2.824263362070000e-4 2.895759929470000e-4
2.969066441099999e-4 3.044228715900000e-4 3.121293732750000e-4 3.200309659780001e-4
3.281325884539999e-4 3.364393044780000e-4 3.449563060200000e-4 3.536889164829999e-4
3.626425940320000e-4 3.718229350070001e-4 3.812356774200000e-4 3.908867045430000e-4
4.007820485790000e-4 4.109278944430000e-4 4.213305836180000e-4 4.319966181230001e-4
4.429326645770000e-4 4.541455583649999e-4 4.656423079100000e-4 4.774300990560000e-4
4.895162995560000e-4 5.019084636780001e-4 5.146143369280000e-4 5.276418608910001e-4
5.409991781930000e-4 5.546946375930000e-4 5.687367991980000e-4 5.831344398160000e-4
5.978965584419999e-4 6.130323818800000e-4 6.285513705130001e-4 6.444632242130001e-4
6.607778884080000e-4 6.775055602930001e-4 6.946566952070000e-4 7.122420131700000e-4
7.302725055760001e-4 7.487594420700000e-4 7.677143775899999e-4 7.871491595870000e-4
8.070759354320000e-4 8.275071600100002e-4 8.484556035010000e-4 8.699343593630003e-4
8.919568525190000e-4 9.145368477429999e-4 9.376884582669998e-4 9.614261546029999e-4
9.857647735819999e-4 1.010719527630000e-3 1.036306014290000e-3 1.062540225940000e-3
1.089438559830000e-3 1.117017828270000e-3 1.145295269220000e-3 1.174288557000000e-3
1.204015813350000e-3 1.234495618780000e-3 1.265747024150000e-3 1.297789562620000e-3
1.330643261820000e-3 1.364328656370000e-3 1.398866800740000e-3 1.434279282390000e-3
1.470588235290000e-3 1.507816353710000e-3 1.545986906440000e-3 1.585123751300000e-3
1.625251350110000e-3 1.666394783920000e-3 1.708579768720000e-3 1.751832671490000e-3
1.796180526710000e-3 1.841651053220000e-3 1.888272671600000e-3 1.936074521860000e-3
1.985086481730000e-3 2.035339185270000e-3 2.086864042050000e-3 2.139693256790000e-3
2.193859849470000e-3 2.249397675980000e-3 2.306341449250000e-3 2.364726761010000e-3
2.424590103970000e-3 2.485968894680000e-3 2.548901496860000e-3 2.613427245460000e-3
2.679586471160000e-3 2.747420525640000e-3 2.816971807370000e-3 2.888283788190000e-3
2.961401040400000e-3 3.036369264660000e-3 3.113235318550000e-3 3.192047245860000e-3
3.272854306610000e-3 3.355707007840000e-3 3.440657135190000e-3 3.527757785250000e-3
3.617063398760000e-3 3.708629794640000e-3 3.802514204880000e-3 3.898775310270000e-3
3.997473277149999e-3 4.098669794950000e-3 4.202428114800000e-3 4.308813089020000e-3
4.417891211690000e-3 4.529730660170000e-3 4.644401337780001e-3 4.761974917410000e-3
4.882524886380000e-3 5.006126592340000e-3 5.132857290390000e-3 5.262796191330001e-3
5.396024511199999e-3 5.532625522060000e-3 5.672684603970000e-3 5.816289298410000e-3
5.963529363009999e-3 6.114496827580000e-3 6.269286051720000e-3 6.427993783720000e-3
6.590719221090000e-3 6.757564072510000e-3 6.928632621460000e-3 7.104031791340000e-3
7.283871212350000e-3 7.468263289970000e-3 7.657323275260000e-3 7.851169336870001e-3
8.049922634890001e-3 8.253707396610000e-3 8.462650994130000e-3 8.676884024000000e-3
8.896540388840000e-3 9.121757381039998e-3 9.352675768530000e-3 9.589439882840001e-3
9.832197709230000e-3 1.008110097930000e-2 1.033630526560000e-2 1.059797007910000e-2
1.086625896900000e-2 1.114133962450000e-2 1.142338397990000e-2 1.171256832210000e-2
1.200907340080000e-2 1.231308454140000e-2 1.262479176060000e-2 1.294438988560000e-2
1.327207867560000e-2 1.360806294690000e-2 1.395255270050000e-2 1.430576325380000e-2
1.466791537470000e-2 1.503923542030000e-2 1.541995547750000e-2 1.581031350890000e-2
1.621055350090000e-2 1.662092561660000e-2 1.704168635180000e-2 1.747309869570000e-2
1.791543229520000e-2 1.836896362300000e-2 1.883397615100000e-2 1.931076052720000e-2
1.979961475740000e-2 2.030084439130000e-2 2.081476271380000e-2 2.134169094060000e-2
2.188195841890000e-2 2.243590283360000e-2 2.300387041790000e-2 2.358621617010000e-2
2.418330407510000e-2 2.479550733250000e-2 2.542320858910000e-2 2.606680017860000e-2
2.672668436680000e-2 2.740327360280000e-2 2.809699077680000e-2 2.880826948470000e-2
2.953755429880000e-2 3.028530104590000e-2 3.105197709200000e-2 3.183806163460000e-2
3.264404600210000e-2 3.347043396110000e-2 3.431774203080000e-2 3.518649980639999e-2
3.607725028990000e-2 3.699055022910000e-2 3.792697046650000e-2 3.888709629490000e-2
3.987152782450000e-2 4.088088035689999e-2 4.191578477020000e-2 4.297688791360000e-2
4.406485301089999e-2 4.518036007570000e-2 4.632410633640000e-2 4.749680667150000e-2
4.869919405690000e-2 4.993202002390000e-2 5.119605512880000e-2 5.249208943480000e-2
5.382093300540001e-2 5.518341641119999e-2 5.658039124860000e-2 5.801273067240000e-2
5.948132994130000e-2 6.098710697770001e-2 6.253100294129999e-2 6.411398281720000e-2
6.573703601960000e-2 6.740117700930000e-2 6.910744592880000e-2 7.085690925160000e-2
7.265066044930001e-2 7.448982067480001e-2 7.637553946300001e-2 7.830899544960000e-2
8.029139710760001e-2 8.232398350240000e-2 8.440802506679999e-2 8.654482439459999e-2
8.873571705490001e-2 9.098207242700001e-2 9.328529455610001e-2 9.564682303089999e-2
9.806813388370001e-2 1.005507405130000e-1 1.030961946270000e-1 1.057060872200000e-1
1.083820495580000e-1 1.111257542050000e-1 1.139389160670000e-1 1.168232934590000e-1
1.197806892130000e-1 1.228129517970000e-1 1.259219764740000e-1 1.291097064850000e-1
1.323781342650000e-1 1.357293026890000e-1 1.391653063450000e-1 1.426882928480000e-1
1.463004641790000e-1 1.500040780630000e-1 1.538014493780000e-1 1.576949516060000e-1
1.616870183120000e-1 1.657801446680000e-1 1.699768890110000e-1 1.742798744420000e-1
1.786917904690000e-1 1.832153946810000e-1 1.878535144790000e-1 1.926090488390000e-1
1.974849701250000e-1 2.024843259450000e-1 2.076102410610000e-1 2.128659193360000e-1
2.182546457390000e-1 2.237797884010000e-1 2.294448007150000e-1 2.352532234990000e-1
2.412086872060000e-1 2.473149141940000e-1 2.535757210540000e-1 2.599950209950000e-1
2.665768262870000e-1 2.733252507730000e-1 2.802445124390000e-1 2.873389360480000e-1
2.946129558450000e-1 3.020711183310000e-1 3.097180850980000e-1 3.175586357510000e-1
3.255976708890000e-1 3.338402151700000e-1 3.422914204520000e-1 3.509565690160000e-1
3.598410768590000e-1 3.689504970890000e-1 3.782905233910000e-1 3.878669935840000e-1
3.976858932740000e-1 4.077533595930000e-1 4.180756850350000e-1 4.286593213900000e-1
4.395108837750000e-1 4.506371547700000e-1 4.620450886550000e-1 4.737418157620000e-1
4.857346469259999e-1 4.980310780560000e-1 5.106387948220000e-1 5.235656774570000e-1
5.368198056840000e-1 5.504094637650000e-1 5.643431456780000e-1 5.786295604279999e-1
5.932776374890000e-1 6.082965323870000e-1 6.236956324189999e-1 6.394845625240000e-1
6.556731912979999e-1 6.722716371600001e-1 6.892902746800001e-1 7.067397410600000e-1
7.246309427840000e-1 7.429750624370000e-1 7.617835656890000e-1 7.810682084680000e-1
8.008410443030000e-1 8.211144318600001e-1 8.419010426670001e-1 8.632138690320000e-1
8.850662321650001e-1 9.074717905040000e-1 9.304445482530001e-1 9.539988641340001e-1
9.781494603590000e-1 1.002911431840000e0 1.028300255610000e0 1.054331800520000e0
1.081022337120000e0 1.108388547870000e0 1.136447537550000e0 1.165216843930000e0
1.194714448780000e0 1.224958789040000e0 1.255968768420000e0 1.287763769170000e0
1.320363664190000e0 1.353788829490000e0 1.388060156870000e0 1.423199067040000e0
1.459227522950000e0 1.496168043560000e0 1.534043717910000e0
</PP_RAB>
</PP_MESH>
<PP_LOCAL columns="4">
-2.218080846900000e1 -2.218080878800000e1 -2.218080912300000e1 -2.218080947500000e1
-2.218080984600000e1 -2.218081023500000e1 -2.218081064500000e1 -2.218081107500000e1
-2.218081152700000e1 -2.218081200300000e1 -2.218081250300000e1 -2.218081302900000e1
-2.218081358100000e1 -2.218081416200000e1 -2.218081477300000e1 -2.218081541500000e1
-2.218081609000000e1 -2.218081679900000e1 -2.218081754500000e1 -2.218081832900000e1
-2.218081915400000e1 -2.218082002000000e1 -2.218082093100000e1 -2.218082188900000e1
-2.218082289600000e1 -2.218082395400000e1 -2.218082506700000e1 -2.218082623700000e1
-2.218082746700000e1 -2.218082875900000e1 -2.218083011800000e1 -2.218083154700000e1
-2.218083304900000e1 -2.218083462800000e1 -2.218083628800000e1 -2.218083803400000e1
-2.218083986800000e1 -2.218084179700000e1 -2.218084382400000e1 -2.218084595600000e1
-2.218084819700000e1 -2.218085055200000e1 -2.218085302900000e1 -2.218085563200000e1
-2.218085836900000e1 -2.218086124600000e1 -2.218086427100000e1 -2.218086745100000e1
-2.218087079300000e1 -2.218087430800000e1 -2.218087800200000e1 -2.218088188600000e1
-2.218088596900000e1 -2.218089026100000e1 -2.218089477300000e1 -2.218089951700000e1
-2.218090450400000e1 -2.218090974600000e1 -2.218091525800000e1 -2.218092105200000e1
-2.218092714300000e1 -2.218093354600000e1 -2.218094027700000e1 -2.218094735400000e1
-2.218095479300000e1 -2.218096261400000e1 -2.218097083600000e1 -2.218097947900000e1
-2.218098856600000e1 -2.218099811800000e1 -2.218100816000000e1 -2.218101871700000e1
-2.218102981500000e1 -2.218104148200000e1 -2.218105374700000e1 -2.218106664100000e1
-2.218108019600000e1 -2.218109444600000e1 -2.218110942700000e1 -2.218112517500000e1
-2.218114173100000e1 -2.218115913600000e1 -2.218117743300000e1 -2.218119666800000e1
-2.218121688900000e1 -2.218123814600000e1 -2.218126049400000e1 -2.218128398700000e1
-2.218130868400000e1 -2.218133464700000e1 -2.218136194200000e1 -2.218139063500000e1
-2.218142080000000e1 -2.218145251100000e1 -2.218148584700000e1 -2.218152089200000e1
-2.218155773400000e1 -2.218159646400000e1 -2.218163717900000e1 -2.218167998200000e1
-2.218172497800000e1 -2.218177228100000e1 -2.218182200800000e1 -2.218187428500000e1
-2.218192924000000e1 -2.218198701300000e1 -2.218204774600000e1 -2.218211159200000e1
-2.218217871100000e1 -2.218224926900000e1 -2.218232344400000e1 -2.218240141900000e1
-2.218248339100000e1 -2.218256956400000e1 -2.218266015200000e1 -2.218275538300000e1
-2.218285549400000e1 -2.218296073400000e1 -2.218307136600000e1 -2.218318766800000e1
-2.218330992800000e1 -2.218343845200000e1 -2.218357356000000e1 -2.218371559100000e1
-2.218386489700000e1 -2.218402185100000e1 -2.218418684600000e1 -2.218436029100000e1
-2.218454262000000e1 -2.218473428800000e1 -2.218493577100000e1 -2.218514757300000e1
-2.218537022000000e1 -2.218560426700000e1 -2.218585029800000e1 -2.218610892500000e1
-2.218638079200000e1 -2.218666657600000e1 -2.218696698700000e1 -2.218728277400000e1
-2.218761472100000e1 -2.218796365400000e1 -2.218833044100000e1 -2.218871599200000e1
-2.218912126600000e1 -2.218954727000000e1 -2.218999506100000e1 -2.219046575000000e1
-2.219096050400000e1 -2.219148055200000e1 -2.219202718100000e1 -2.219260174600000e1
-2.219320567000000e1 -2.219384044800000e1 -2.219450764900000e1 -2.219520892500000e1
-2.219594600700000e1 -2.219672071600000e1 -2.219753496400000e1 -2.219839075900000e1
-2.219929020900000e1 -2.220023553200000e1 -2.220122905100000e1 -2.220227321100000e1
-2.220337057700000e1 -2.220452384100000e1 -2.220573583200000e1 -2.220700951800000e1
-2.220834801700000e1 -2.220975459900000e1 -2.221123269900000e1 -2.221278592100000e1
-2.221441804800000e1 -2.221613304700000e1 -2.221793508500000e1 -2.221982853000000e1
-2.222181796600000e1 -2.222390820200000e1 -2.222610427900000e1 -2.222841148700000e1
-2.223083537000000e1 -2.223338174200000e1 -2.223605669700000e1 -2.223886662300000e1
-2.224181821200000e1 -2.224491847900000e1 -2.224817477000000e1 -2.225159478100000e1
-2.225518657100000e1 -2.225895857600000e1 -2.226291962800000e1 -2.226707897000000e1
-2.227144627300000e1 -2.227603165000000e1 -2.228084568100000e1 -2.228589942300000e1
-2.229120443400000e1 -2.229677279000000e1 -2.230261710200000e1 -2.230875054000000e1
-2.231518684900000e1 -2.232194036700000e1 -2.232902605100000e1 -2.233645949100000e1
-2.234425693100000e1 -2.235243529000000e1 -2.236101217900000e1 -2.237000592200000e1
-2.237943557000000e1 -2.238932092400000e1 -2.239968254400000e1 -2.241054177000000e1
-2.242192073400000e1 -2.243384237100000e1 -2.244633043000000e1 -2.245940948000000e1
-2.247310492100000e1 -2.248744298000000e1 -2.250245071400000e1 -2.251815600800000e1
-2.253458756100000e1 -2.255177488100000e1 -2.256974826100000e1 -2.258853876200000e1
-2.260817817900000e1 -2.262869901300000e1 -2.265013442200000e1 -2.267251817700000e1
-2.269588460200000e1 -2.272026850900000e1 -2.274570512100000e1 -2.277222999200000e1
-2.279987890400000e1 -2.282868776600000e1 -2.285869249500000e1 -2.288992888700000e1
-2.292243247300000e1 -2.295623836800000e1 -2.299138110300000e1 -2.302789444500000e1
-2.306581120400000e1 -2.310516302800000e1 -2.314598018900000e1 -2.318829134900000e1
-2.323212331900000e1 -2.327750081200000e1 -2.332444617600000e1 -2.337297912500000e1
-2.342311645900000e1 -2.347487177600000e1 -2.352825517700000e1 -2.358327296200000e1
-2.363992732400000e1 -2.369821602900000e1 -2.375813208300000e1 -2.381966339500000e1
-2.388279241000000e1 -2.394749571900000e1 -2.401374363600000e1 -2.408149971000000e1
-2.415072018800000e1 -2.422135336600000e1 -2.429333882700000e1 -2.436660652400001e1
-2.444107565500000e1 -2.451665328800000e1 -2.459323267000000e1 -2.467069114700000e1
-2.474888762000000e1 -2.482765942800000e1 -2.490681858000000e1 -2.498614720600000e1
-2.506539211800000e1 -2.514425837200000e1 -2.522240170300000e1 -2.529941974900000e1
-2.537484196300000e1 -2.544811818600000e1 -2.551860586300000e1 -2.558555597700000e1
-2.564809783800000e1 -2.570522300300000e1 -2.575576869100000e1 -2.579840125500001e1
-2.583160043800000e1 -2.585364532600000e1 -2.586260317000000e1 -2.585632244100000e1
-2.583243171500000e1 -2.578834619700000e1 -2.572128381600000e1 -2.562829293500000e1
-2.550629365800000e1 -2.535213457500000e1 -2.516266640100000e1 -2.493483341900000e1
-2.466578281700000e1 -2.435299088800000e1 -2.399440376600000e1 -2.358858871600000e1
-2.313489025900000e1 -2.263358349900000e1 -2.208601524300000e1 -2.149472188300000e1
-2.086351193500000e1 -2.019750070300000e1 -1.950308514600000e1 -1.878784881000000e1
-1.806038988300000e1 -1.733007006200000e1 -1.660668789300000e1 -1.590008730200000e1
-1.521971960300000e1 -1.457418463900000e1 -1.397078300400000e1 -1.341511538500000e1
-1.291076607200000e1 -1.245910474300000e1 -1.205923330800000e1 -1.170809305900000e1
-1.140073237200000e1 -1.113071821100000e1 -1.089065785000000e1 -1.067278291900000e1
-1.046953857100000e1 -1.027411822900000e1 -1.008089000000000e1 -9.885674242400000e0
-9.685851220300000e0 -9.480300462800001e0 -9.269195530899999e0 -9.053695727199999e0
-8.835586683200001e0 -8.616923170800000e0 -8.399720055900000e0 -8.185723086499999e0
-7.976273489200000e0 -7.772262969500000e0 -7.574162036500000e0 -7.382096739200000e0
-7.195947427400000e0 -7.015446999000000e0 -6.840263211800000e0 -6.670057642600000e0
-6.504520770700000e0 -6.343387263300000e0 -6.186437588100000e0 -6.033492028300000e0
-5.884401864500000e0 -5.739040737900000e0 -5.597297644200000e0 -5.459071902400000e0
-5.324269850500000e0 -5.192802808400000e0 -5.064585866900000e0 -4.939537172500000e0
-4.817577489700000e0 -4.698629919700000e0 -4.582619705800000e0 -4.469474092100000e0
-4.359122215500000e0 -4.251495022000000e0 -4.146525196700000e0 -4.044147106900000e0
-3.944296751300000e0 -3.846911714200000e0 -3.751931124200000e0 -3.659295614200000e0
-3.568947283400000e0 -3.480829660900000e0 -3.394887670400000e0 -3.311067595100000e0
-3.229317044900000e0 -3.149584923000000e0 -3.071821394200000e0 -2.995977853700000e0
-2.922006896900000e0 -2.849862289600000e0 -2.779498939000000e0 -2.710872865600000e0
-2.643941176100000e0 -2.578662035900000e0 -2.514994643400000e0 -2.452899204400000e0
-2.392336907200000e0 -2.333269898500000e0 -2.275661259500000e0 -2.219474982800000e0
-2.164675950200000e0 -2.111229910600000e0 -2.059103458300000e0 -2.008264012800000e0
-1.958679797700000e0 -1.910319821200000e0 -1.863153856700000e0 -1.817152424100000e0
-1.772286770900000e0 -1.728528854600000e0 -1.685851325100000e0 -1.644227507600000e0
-1.603631385800000e0 -1.564037585800000e0 -1.525421360200000e0 -1.487758572600000e0
-1.451025682600000e0 -1.415199730800000e0 -1.380258325000000e0 -1.346179625500000e0