<UPF version="2.0.1">
<PP_INFO>
Generated by new atomic code, or converted to UPF format
Author:
Generation date:
Pseudopotential type: NC
Element: Li
Functional:  SLA  PZ   NOGX NOGC
Suggested minimum cutoff for wavefunctions:   0. Ry
Suggested minimum cutoff for charge density:   0. Ry
The Pseudo was generated with a Non-Relativistic Calculation
L component and cutoff radius for Local Potential:  0   0.0000
Valence configuration:
nl pn  l   occ       Rcut    Rcut US       E pseu
2S  0  0  1.00      2.970      0.000     0.000000
2P  0  1  0.00      0.000      0.000     0.000000
Generation configuration: not available.
</PP_INFO>
<!--
END OF HUMAN READABLE SECTION
-->
<PP_HEADER generated="Generated by new atomic code, or converted to UPF format" author="" date="" comment="" element="Li" pseudo_type="NC" relativistic="no" is_ultrasoft="false" is_paw="false" is_coulomb="false" has_so="false" has_wfc="false" has_gipaw="false" paw_as_gipaw="false" core_correction="true" functional=" SLA  PZ   NOGX NOGC" z_valence="1.000000000000e0" total_psenergy="0.000000000000e0" wfc_cutoff="0.000000000000e0" rho_cutoff="0.000000000000e0" l_max="0" l_max_rho="0" l_local="0" mesh_size="149" number_of_wfc="2" number_of_proj="1"/>
<PP_MESH dx="6.250000000000e-2" mesh="149" xmin="-4.000000000000e0" rmax="6.352208948620e1" zmesh="3.000000000000e0">
<PP_R>
6.105212962910000e-3 6.498965369530001e-3 6.918112624570000e-3 7.364292555020000e-3
7.839248618670000e-3 8.344836716649999e-3 8.883032445450000e-3 9.455938816570001e-3
1.006579447410000e-2 1.071498244230000e-2 1.140603943720000e-2 1.214166577910000e-2
1.292473594390000e-2 1.375830979530000e-2 1.464564454110000e-2 1.559020746130000e-2
1.659568945600000e-2 1.766601946780000e-2 1.880537983460000e-2 2.001822263180000e-2
2.130928706890000e-2 2.268361800830000e-2 2.414658567810000e-2 2.570390665610000e-2
2.736166620800000e-2 2.912634206510000e-2 3.100482973690000e-2 3.300446945460000e-2
3.513307485400000e-2 3.739896350680000e-2 3.981098942220001e-2 4.237857764400000e-2
4.511176107890000e-2 4.802121970050000e-2 5.111832228160001e-2 5.441517081800001e-2
5.792464781680000e-2 6.166046663580000e-2 6.563722506810000e-2 6.987046238370000e-2
7.437672004950000e-2 7.917360636520000e-2 8.427986526820000e-2 8.971544957639999e-2
9.550159895340000e-2 1.016609229040000e-1 1.082174891190000e-1 1.151969175260000e-1
1.226264803900000e-1 1.305352088920000e-1 1.389540065600000e-1 1.479157700270000e-1
1.574555175800000e-1 1.676105259900000e-1 1.784204761730000e-1 1.899276082440000e-1
2.021768865710000e-1 2.152161754760000e-1 2.290964262640000e-1 2.438718763160000e-1
2.596002610240000e-1 2.763430393930000e-1 2.941656341950000e-1 3.131376876040000e-1
3.333333333330000e-1 3.548314863060000e-1 3.777161510220000e-1 4.020767498070000e-1
4.280084722290000e-1 4.556126470580000e-1 4.849971382060000e-1 5.162767662110000e-1
5.495737569000000e-1 5.850182189870000e-1 6.227486524770000e-1 6.629124898610001e-1
7.056666722040000e-1 7.511782624040000e-1 7.996250979890000e-1 8.511964860210000e-1
9.060939428199999e-1 9.645319813910000e-1 1.026738949640000e0 1.092957922650000e0
1.163447652490000e0 1.238483579310000e0 1.318358907640000e0 1.403385752050000e0
1.493896356780000e0 1.590244393990000e0 1.692806345730000e0 1.801982975050000e0
1.918200892000000e0 2.041914220630000e0 2.173606373440000e0 2.313791940400000e0
2.463018699640000e0 2.621869757980000e0 2.790965829380000e0 2.970967660400000e0
3.162578612120000e0 3.366547408490000e0 3.583671062030000e0 3.814797988110000e0
4.060831320230000e0 4.322732438990000e0 4.601524728690000e0 4.898297576260000e0
5.214210628060000e0 5.550498321200000e0 5.908474707150000e0 6.289538586420000e0
6.695178974400000e0 7.126980919710000e0 7.586631697840000e0 8.075927404200000e0
8.596779972400000e0 9.151224645150000e0 9.741427927080000e0 1.036969605030000e1
1.103848398620000e1 1.175040503820000e1 1.250824105320000e1 1.331495329190000e1
1.417369400000000e1 1.508781872540000e1 1.606089943040000e1 1.709673844890000e1
1.819938334440000e1 1.937314272580000e1 2.062260308350000e1 2.195264671080000e1
2.336847078220000e1 2.487560766110000e1 2.647994651740000e1 2.818775634020000e1
3.000571043350000e1 3.194091249240000e1 3.400092436090000e1 3.619379558030000e1
3.852809484240000e1 4.101294347240001e1 4.365805107030000e1 4.647375345150000e1
4.947105303420000e1 5.266166183170000e1 5.605804721730000e1 5.967348064060000e1
6.352208948620000e1
</PP_R>
<PP_RAB>
3.815758101820000e-4 4.061853355960000e-4 4.323820390350000e-4 4.602682846890000e-4
4.899530386670000e-4 5.215522947909999e-4 5.551895278409999e-4 5.909961760360000e-4
6.291121546320001e-4 6.696864026429999e-4 7.128774648260000e-4 7.588541111950001e-4
8.077959964940000e-4 8.598943622040000e-4 9.153527838209998e-4 9.743879663320000e-4
1.037230591000000e-3 1.104126216740000e-3 1.175336239660000e-3 1.251138914490000e-3
1.331830441810000e-3 1.417726125520000e-3 1.509161604880000e-3 1.606494166010000e-3
1.710104138000000e-3 1.820396379070000e-3 1.937801858560000e-3 2.062779340910001e-3
2.195817178370000e-3 2.337435219170000e-3 2.488186838890000e-3 2.648661102750000e-3
2.819485067430000e-3 3.001326231280000e-3 3.194895142600001e-3 3.400948176120000e-3
3.620290488550000e-3 3.853779164740001e-3 4.102326566750000e-3 4.366903898980000e-3
4.648545003090000e-3 4.948350397820000e-3 5.267491579270000e-3 5.607215598520000e-3
5.968849934590001e-3 6.353807681480000e-3 6.763593069970000e-3 7.199807345350000e-3
7.664155024410000e-3 8.158450555770001e-3 8.684625409970002e-3 9.244735626690002e-3
9.840969848770001e-3 1.047565787440000e-2 1.115127976080000e-2 1.187047551520000e-2
1.263605541070000e-2 1.345101096720000e-2 1.431852664150000e-2 1.524199226970000e-2
1.622501631400000e-2 1.727143996210000e-2 1.838535213720000e-2 1.957110547530000e-2
2.083333333330000e-2 2.217696789410000e-2 2.360725943890000e-2 2.512979686290000e-2
2.675052951430001e-2 2.847579044110000e-2 3.031232113790000e-2 3.226729788820000e-2
3.434835980630000e-2 3.656363868670000e-2 3.892179077980000e-2 4.143203061630000e-2
4.410416701280000e-2 4.694864140030000e-2 4.997656862430000e-2 5.319978037629999e-2
5.663087142620000e-2 6.028324883689999e-2 6.417118435250000e-2 6.830987016540000e-2
7.271547828050000e-2 7.740522370710000e-2 8.239743172750000e-2 8.771160950300001e-2
9.336852229870001e-2 9.939027462429999e-2 1.058003966080000e-1 1.126239359400000e-1
1.198875557500000e-1 1.276196387890000e-1 1.358503983400000e-1 1.446119962750000e-1
1.539386687280000e-1 1.638668598740000e-1 1.744353643360000e-1 1.856854787750000e-1
1.976611632570000e-1 2.104092130310000e-1 2.239794413770000e-1 2.384248742570000e-1
2.538019575150000e-1 2.701707774370000e-1 2.875952955430000e-1 3.061435985160000e-1
3.258881642540000e-1 3.469061450750000e-1 3.692796691970000e-1 3.930961616510000e-1
4.184486859000000e-1 4.454363074820000e-1 4.741644811150000e-1 5.047454627630001e-1
5.372987482750000e-1 5.719515403220000e-1 6.088392454419999e-1 6.481060031450000e-1
6.899052491390000e-1 7.344003148870000e-1 7.817650658250001e-1 8.321845807460001e-1
8.858558750010001e-1 9.429886703390000e-1 1.003806214400000e0 1.068546153050000e0
1.137461459020000e0 1.210821420360000e0 1.288912692720000e0 1.372040419430000e0
1.460529423890000e0 1.554725478820000e0 1.654996657340000e0 1.761734771260000e0
1.875356902090000e0 1.996307030770000e0 2.125057772560000e0 2.262112223770000e0
2.408005927650000e0 2.563308967020000e0 2.728628191890000e0 2.904609590720000e0
3.091940814640000e0 3.291353864480000e0 3.503627951080000e0 3.729592540030000e0
3.970130592890000e0
</PP_RAB>
</PP_MESH>
<PP_NLCC columns="4">
1.341701143660000e-2 1.341701295750000e-2 1.341701468040000e-2 1.341701663190000e-2
1.341701884240000e-2 1.341702134620000e-2 1.341702418180000e-2 1.341702739320000e-2
1.341703102970000e-2 1.341703514730000e-2 1.341703980930000e-2 1.341704508690000e-2
1.341705106070000e-2 1.341705782160000e-2 1.341706547200000e-2 1.341707412710000e-2
1.341708391710000e-2 1.341709498780000e-2 1.341710750340000e-2 1.341712164800000e-2
1.341713762790000e-2 1.341715567380000e-2 1.341717604320000e-2 1.341719902300000e-2
1.341722493200000e-2 1.341725412310000e-2 1.341728698570000e-2 1.341732394760000e-2
1.341736547640000e-2 1.341741207940000e-2 1.341746430330000e-2 1.341752273070000e-2
1.341758797520000e-2 1.341766067180000e-2 1.341774146280000e-2 1.341783097730000e-2
1.341792980110000e-2 1.341803843560000e-2 1.341815724080000e-2 1.341828635750000e-2
1.341842560380000e-2 1.341857433570000e-2 1.341873126410000e-2 1.341889421160000e-2
1.341905979550000e-2 1.341922301300000e-2 1.341937670110000e-2 1.341951083720000e-2
1.341961163440000e-2 1.341966037570000e-2 1.341963191560000e-2 1.341949275900000e-2
1.341919860620000e-2 1.341869122340000e-2 1.341789446520000e-2 1.341670923590000e-2
1.341500712720000e-2 1.341262241530000e-2 1.340934203550000e-2 1.340489308110000e-2
1.339892729860000e-2 1.339100197310000e-2 1.338055652940000e-2 1.336688412500000e-2
1.334909749900000e-2 1.332608839950000e-2 1.329648007020000e-2 1.325857260230000e-2
1.321028151110000e-2 1.314907077180000e-2 1.307188285380000e-2 1.297507014630000e-2
1.285433467830000e-2 1.270468628610000e-2 1.252043336130000e-2 1.229522485060000e-2
1.202216683720000e-2 1.169404096350000e-2 1.130365375830000e-2 1.084434354610000e-2
1.031066232560000e-2 9.699230693759999e-3 9.009731745459998e-3 8.245963673449999e-3
7.416812900740000e-3 6.536948442449999e-3 5.626990508500000e-3 4.712897419950000e-3
3.824374814240000e-3 2.992264534959999e-3 2.245119727320000e-3 1.605477449270000e-3
1.086606978850000e-3 6.906074875060000e-4 4.085310853910000e-4 2.226885956280000e-4
1.105928972230000e-4 4.940243051660000e-5 1.956452054780000e-5 6.757302318309999e-6
1.998064004150000e-6 4.952975926180001e-7 1.005150598040000e-7 1.625658196800000e-8
2.032550105160000e-9 1.898004363369999e-10 1.273041318130000e-11 5.867769037110000e-13
1.767806969480000e-14 0.000000000000000e0 0.000000000000000e0 0.000000000000000e0
0.000000000000000e0 0.000000000000000e0 0.000000000000000e0 0.000000000000000e0
0.000000000000000e0 0.000000000000000e0 0.000000000000000e0 0.000000000000000e0
0.000000000000000e0 0.000000000000000e0 0.000000000000000e0 0.000000000000000e0
0.000000000000000e0 0.000000000000000e0 0.000000000000000e0 0.000000000000000e0
0.000000000000000e0 0.000000000000000e0 0.000000000000000e0 0.000000000000000e0
0.000000000000000e0 0.000000000000000e0 0.000000000000000e0 0.000000000000000e0
0.000000000000000e0 0.000000000000000e0 0.000000000000000e0 0.000000000000000e0
0.000000000000000e0 0.000000000000000e0 0.000000000000000e0 0.000000000000000e0
0.000000000000000e0 0.000000000000000e0 0.000000000000000e0 0.000000000000000e0
0.000000000000000e0
</PP_NLCC>
<PP_LOCAL columns="4">
-5.243815092220000e0 -5.243795375120000e0 -5.243773032820000e0 -5.243747715800000e0
-5.243719028010000e0 -5.243686520700000e0 -5.243649685350000e0 -5.243607945760000e0
-5.243560649050000e0 -5.243507055420000e0 -5.243446326590000e0 -5.243377512720000e0
-5.243299537580000e0 -5.243211181680000e0 -5.243111063270000e0 -5.242997616740000e0
-5.242869068190000e0 -5.242723407720000e0 -5.242558358050000e0 -5.242371339070000e0
-5.242159427500000e0 -5.241919311420000e0 -5.241647238610000e0 -5.241338958160000e0
-5.240989654310000e0 -5.240593871590000e0 -5.240145430040000e0 -5.239637329280000e0
-5.239061640020000e0 -5.238409381230000e0 -5.237670381220000e0 -5.236833120660000e0
-5.235884554950000e0 -5.234809913620000e0 -5.233592473590000e0 -5.232213303220000e0
-5.230650973370000e0 -5.228881231400000e0 -5.226876633720000e0 -5.224606131730000e0
-5.222034605710000e0 -5.219122340630000e0 -5.215824437110000e0 -5.212090150560000e0
-5.207862150440000e0 -5.203075691650000e0 -5.197657689170000e0 -5.191525686820000e0
-5.184586711110000e0 -5.176736001000000e0 -5.167855604960000e0 -5.157812837940000e0
-5.146458592420000e0 -5.133625500590000e0 -5.119125948880000e0 -5.102749951450000e0
-5.084262897760000e0 -5.063403199730000e0 -5.039879878660000e0 -5.013370151100000e0
-4.983517097440000e0 -4.949927529020000e0 -4.912170209330000e0 -4.869774635620000e0
-4.822230648900000e0 -4.768989215400000e0 -4.709464811380000e0 -4.643039945390000e0
-4.569072465430000e0 -4.486906416800000e0 -4.395887329670000e0 -4.295382903670000e0
-4.184810092780000e0 -4.063669532990000e0 -3.931588038080000e0 -3.788369436670000e0
-3.634053240550000e0 -3.468979417570000e0 -3.293855804510000e0 -3.109822404860000e0
-2.918504062140000e0 -2.722040078070000e0 -2.523076864970000e0 -2.324708670970000e0
-2.130353153340000e0 -1.943554611700000e0 -1.767719184480000e0 -1.605803203210000e0
-1.459995863950000e0 -1.331455037960000e0 -1.220162297110000e0 -1.124951566760000e0
-1.043730902850000e0 -9.738639204469999e-1 -9.126236590560000e-1 -8.576019666440001e-1
-8.069713755010000e-1 -7.595532439910000e-1 -7.147195996520001e-1 -6.722086307210001e-1
-6.319406779810000e-1 -5.938888416150000e-1 -5.580145260329999e-1 -5.242498514529999e-1
-4.925028395240000e-1 -4.626685047610001e-1 -4.346381525330000e-1 -4.083050549200000e-1
-3.835671573140000e-1 -3.603280062550000e-1 -3.384968369270000e-1 -3.179883504140000e-1
-2.987224102070000e-1 -2.806237343040000e-1 -2.636216017400000e-1 -2.476495763150000e-1
-2.326452469900000e-1 -2.185499840240000e-1 -2.053087098700000e-1 -1.928696839610000e-1
-1.811843005340000e-1 -1.702068986980000e-1 -1.598945840180000e-1 -1.502070609000000e-1
-1.411064751360000e-1 -1.325572659900000e-1 -1.245260272420000e-1 -1.169813766520000e-1
-1.098938333320000e-1 -1.032357025550000e-1 -9.698096752900000e-2 -9.110518774100001e-2
-8.558540345399999e-2 -8.040004599080000e-2 -7.552885345460001e-2 -7.095279155460000e-2
-6.665397922950000e-2 -6.261561877660000e-2 -5.882193021490000e-2 -5.525808962380000e-2
-5.191017121870000e-2 -4.876509293580000e-2 -4.581056531320000e-2 -4.303504347010001e-2
-4.042768199450000e-2 -3.797829256490000e-2 -3.567730413880000e-2 -3.351572555400000e-2
-3.148511039510000e-2
</PP_LOCAL>
<PP_NONLOCAL>
<PP_BETA.1 index="1" label="2S" angular_momentum="0" cutoff_radius_index="120" cutoff_radius="2.970000000000e0" ultrasoft_cutoff_radius="0.000000000000e0">
5.591804660049999e-3 5.952441004870001e-3 6.336335501340001e-3 6.744988012569999e-3
7.179995164239999e-3 7.643056446710000e-3 8.135980726430001e-3 8.660693696179999e-3
9.219245193370000e-3 9.813817021070001e-3 1.044673169210000e-2 1.112046134210000e-2
1.183763658830000e-2 1.260105980430000e-2 1.341371159620000e-2 1.427876454460000e-2
1.519959747190000e-2 1.617980530750000e-2 1.722321305270000e-2 1.833389487840000e-2
1.951618338400000e-2 2.077469456100000e-2 2.211433534590000e-2 2.354033313950000e-2
2.505824562570000e-2 2.667399236050000e-2 2.839386749590000e-2 3.022457292250000e-2
3.217323540840000e-2 3.424744054260000e-2 3.645525551080000e-2 3.880526380880000e-2
4.130659339110000e-2 4.396895374610000e-2 4.680266960440000e-2 4.981871696660000e-2
5.302876485230001e-2 5.644521535310000e-2 6.008124606280000e-2 6.395085549020001e-2
6.806890855690000e-2 7.245118525390000e-2 7.711442868859999e-2 8.207639347119999e-2
8.735589784309999e-2 9.297286831880001e-2 9.894839098530001e-2 1.053047484700000e-1
1.120654632590000e-1 1.192553217690000e-1 1.269003995520000e-1 1.350280296110000e-1
1.436668412360000e-1 1.528466444100000e-1 1.625983492790000e-1 1.729538412920000e-1
1.839456951260000e-1 1.956068885940000e-1 2.079703345960000e-1 2.210681908410000e-1
2.349310683160000e-1 2.495867940870000e-1 2.650588835470000e-1 2.813645331000000e-1
2.985118520170000e-1 3.164964838490000e-1 3.352970612160000e-1 3.548695442800000e-1
3.751400324480000e-1 3.959959499280000e-1 4.172751500980000e-1 4.387531108570000e-1
4.601281049110000e-1 4.810047952680000e-1 5.008772966340000e-1 5.191133916200000e-1
5.349428870860001e-1 5.474543406400000e-1 5.556062819120000e-1 5.582601250290001e-1
5.542433212000000e-1 5.424497099380000e-1 5.219804807000000e-1 4.923213893440000e-1
4.535374386310000e-1 4.064509676850000e-1 3.527512688290000e-1 2.949767499400000e-1
2.363203453890000e-1 1.802468284640000e-1 1.299714333360000e-1 8.791753870810000e-2
5.531206101540000e-2 3.205809293040001e-2 1.693606751660000e-2 8.059008861319999e-3
3.408402462980000e-3 1.262119264030000e-3 4.023280200710000e-4 1.083168551500000e-4
2.410355725150000e-5 4.326649776590001e-6 6.094505040010000e-7 6.529634744740001e-8
5.136136822270000e-9 2.849259691049999e-10 1.064963778770000e-11 2.545967629449999e-13
3.679634029140000e-15 3.699573092320001e-17 0.000000000000000e0 0.000000000000000e0
0.000000000000000e0 0.000000000000000e0 0.000000000000000e0 0.000000000000000e0
0.000000000000000e0 0.000000000000000e0 0.000000000000000e0 0.000000000000000e0
0.000000000000000e0 0.000000000000000e0 0.000000000000000e0 0.000000000000000e0
0.000000000000000e0 0.000000000000000e0 0.000000000000000e0 0.000000000000000e0
0.000000000000000e0 0.000000000000000e0 0.000000000000000e0 0.000000000000000e0
0.000000000000000e0 0.000000000000000e0 0.000000000000000e0 0.000000000000000e0
0.000000000000000e0 0.000000000000000e0 0.000000000000000e0 0.000000000000000e0
0.000000000000000e0 0.000000000000000e0 0.000000000000000e0 0.000000000000000e0
0.000000000000000e0 0.000000000000000e0 0.000000000000000e0 0.000000000000000e0
0.000000000000000e0
</PP_BETA.1>
<PP_DIJ>
1.055448694920000e1
</PP_DIJ>
</PP_NONLOCAL>
<PP_PSWFC>
<PP_CHI.1 index="1" label="2S" l="0" occupation="1.000000000000e0" n="0" pseudo_energy="0.000000000000e0" cutoff_radius="2.970000000000e0" ultrasoft_cutoff_radius="0.000000000000e0">
5.242590400000000e-4 5.580734700000000e-4 5.940692800000001e-4 6.323872699999999e-4
6.731773499999999e-4 7.165991200000001e-4 7.628224900000000e-4 8.120283900000000e-4
8.644094700000000e-4 9.201708500000001e-4 9.795309600000000e-4 1.042722400000000e-3
1.109992800000000e-3 1.181606100000000e-3 1.257843200000000e-3 1.339003300000000e-3
1.425405300000000e-3 1.517388800000000e-3 1.615315500000000e-3 1.719571100000000e-3
1.830566300000000e-3 1.948739300000000e-3 2.074556700000000e-3 2.208516500000000e-3
2.351149300000000e-3 2.503021600000000e-3 2.664737400000000e-3 2.836941800000000e-3
3.020323200000000e-3 3.215617200000001e-3 3.423609600000000e-3 3.645140700000000e-3
3.881109200000000e-3 4.132477200000000e-3 4.400275199999999e-3 4.685607700000000e-3
4.989659800000000e-3 5.313704200000000e-3 5.659109100000000e-3 6.027347199999999e-3
6.420005700000000e-3 6.838797800000000e-3 7.285575600000000e-3 7.762344799999999e-3
8.271281900000000e-3 8.814753300000000e-3 9.395338200000001e-3 1.001585400000000e-2
1.067938700000000e-2 1.138932700000000e-2 1.214940900000000e-2 1.296375800000000e-2
1.383695100000000e-2 1.477407700000000e-2 1.578081600000000e-2 1.686353300000000e-2
1.802938000000000e-2 1.928642700000000e-2 2.064381100000000e-2 2.211190700000000e-2
2.370254300000000e-2 2.542923700000000e-2 2.730748600000000e-2 2.935510600000000e-2
3.159261500000000e-2 3.404369899999999e-2 3.673573100000000e-2 3.970037800000000e-2
4.297428300000000e-2 4.659983900000000e-2 5.062602200000001e-2 5.510930000000000e-2
6.011456600000001e-2 6.571604600000001e-2 7.199811000000000e-2 7.905585300000000e-2
8.699528400000000e-2 9.593287200000001e-2 1.059941700000000e-1 1.173111000000000e-1
1.300175300000000e-1 1.442426500000000e-1 1.601017700000000e-1 1.776845000000000e-1
1.970402900000000e-1 2.181623000000000e-1 2.409708900000000e-1 2.652991100000000e-1
2.908826900000000e-1 3.173575700000000e-1 3.442667500000000e-1 3.710768500000000e-1
3.972026000000000e-1 4.220352800000001e-1 4.449704000000000e-1 4.654307600000000e-1
4.828830600000000e-1 4.968490600000000e-1 5.069141000000000e-1 5.127355300000001e-1
5.140528100000000e-1 5.106988900000000e-1 5.026118400000001e-1 4.898447100000000e-1
4.725725800000000e-1 4.510954300000000e-1 4.258360800000000e-1 3.973323700000000e-1
3.662231700000000e-1 3.332279200000000e-1 2.991201100000000e-1 2.646955700000000e-1
2.307372900000000e-1 1.979790300000000e-1 1.670705600000000e-1 1.385478200000000e-1
1.128105500000000e-1 9.011009400000001e-2 7.054818600000000e-2 5.408690099999999e-2
4.056811500000000e-2 2.973997000000000e-2 2.128701400000000e-2 1.486060600000000e-2
1.010652900000000e-2 6.687556000000000e-3 4.299727400000000e-3 2.682080500000000e-3
1.620430300000000e-3 9.463542499999999e-4 5.329034500000000e-4 2.890890300000000e-4
1.507561900000000e-4 7.538232300000001e-5 3.604389500000000e-5 1.643235500000000e-5
7.120767500000000e-6 2.923301900000000e-6 1.132925400000000e-6 4.129155699999999e-7
1.409563400000000e-7 4.487130600000000e-8 1.325748700000000e-8 3.616959800000000e-9
9.063076000000002e-10 2.080553200000000e-10 4.724443300000000e-11 9.730638000000001e-12
1.806410600000000e-12
</PP_CHI.1>
<PP_CHI.2 index="2" label="2P" l="1" occupation="0.000000000000e0" n="0" pseudo_energy="0.000000000000e0" cutoff_radius="6.918930873944e-310" ultrasoft_cutoff_radius="6.918930873944e-310">
8.845265300000003e-6 1.002297300000000e-5 1.135748400000000e-5 1.286967400000000e-5
1.458319700000000e-5 1.652485800000000e-5 1.872502900000000e-5 2.121812400000000e-5
2.404313800000000e-5 2.724425700000000e-5 3.087154700000001e-5 3.498173700000000e-5
3.963910400000001e-5 4.491647900000000e-5 5.089638399999999e-5 5.767231800000001e-5
6.535021800000001e-5 7.405011199999999e-5 8.390798899999998e-5 9.507792100000001e-5
1.077344600000000e-4 1.220753700000000e-4 1.383246800000000e-4 1.567361800000000e-4
1.775973800000000e-4 2.012339500000000e-4 2.280147800000000e-4 2.583577100000000e-4
2.927359500000000e-4 3.316854500000000e-4 3.758131100000000e-4 4.258061600000000e-4
4.824426700000001e-4 5.466035400000000e-4 6.192858800000000e-4 7.016182100000002e-4
7.948776300000000e-4 9.005090400000000e-4 1.020146900000000e-3 1.155639700000000e-3
1.309077300000000e-3 1.482822000000000e-3 1.679542800000000e-3 1.902254500000000e-3
2.154360500000000e-3 2.439701600000000e-3 2.762609300000000e-3 3.127965400000000e-3
3.541268200000000e-3 4.008705200000000e-3 4.537232800000000e-3 5.134663800000000e-3
5.809761800000000e-3 6.572343900000001e-3 7.433389600000000e-3 8.405156699999999e-3
9.501301800000000e-3 1.073700500000000e-2 1.212909400000000e-2 1.369616500000000e-2
1.545869900000000e-2 1.743915700000000e-2 1.966206100000000e-2 2.215403400000000e-2
2.494379800000000e-2 2.806211600000000e-2 3.154164700000000e-2 3.541671500000000e-2
3.972295000000000e-2 4.449679700000000e-2 4.977486800000000e-2 5.559311200000000e-2
6.198581599999999e-2 6.898442100000000e-2 7.661619699999999e-2 8.490281000000000e-2
9.385887100000000e-2 1.034905700000000e-1 1.137945700000000e-1 1.247572400000000e-1
1.363545900000000e-1 1.485528300000000e-1 1.613097900000000e-1 1.745772300000000e-1
1.883036200000000e-1 2.024372700000000e-1 2.169290400000000e-1 2.317339100000000e-1
2.468108600000000e-1 2.621201400000000e-1 2.776180100000000e-1 2.932492000000000e-1
3.089379200000000e-1 3.245790900000000e-1 3.400313100000000e-1 3.551131700000000e-1
3.696036800000000e-1 3.832466900000000e-1 3.957583200000000e-1 4.068362800000000e-1
4.161697900000000e-1 4.234498500000000e-1 4.283796500000000e-1 4.306855800000000e-1
4.301288600000000e-1 4.265180200000000e-1 4.197216100000000e-1 4.096808700000000e-1
3.964209900000000e-1 3.800601300000000e-1 3.608147000000000e-1 3.389997800000000e-1
3.150234000000000e-1 2.893742500000000e-1 2.626027300000000e-1 2.352962400000000e-1
2.080504200000000e-1 1.814386500000000e-1 1.559827800000000e-1 1.321278500000000e-1
1.102231200000000e-1 9.051119699999999e-2 7.312564700000000e-2 5.809665600000001e-2
4.536335999999999e-2 3.479082600000000e-2 2.618945200000000e-2 1.933468800000000e-2
1.398529600000000e-2 9.898910100000000e-3 6.845495100000000e-3 4.626375500000001e-3
3.051740700000000e-3 1.961660900000000e-3 1.226659600000000e-3 7.448261100000000e-4
4.383011700000000e-4 2.494477000000000e-4 1.369998500000000e-4 7.243981700000001e-5
3.678478699999999e-5 1.789118600000000e-5 8.311138600000001e-6 3.676393399999999e-6
1.543580800000000e-6 6.130909900000001e-7 2.296653400000000e-7 8.127896600000001e-8
2.852969900000000e-8
</PP_CHI.2>
</PP_PSWFC>
<PP_RHOATOM>
2.748475410220000e-7 3.114459979180000e-7 3.529183094400000e-7 3.999136592579999e-7
4.531677445530000e-7 5.135142987849999e-7 5.818981512500000e-7 6.593901061659999e-7
7.472037318260000e-7 8.467143931899999e-7 9.594809015990000e-7 1.087270003460000e-6
1.232084016050000e-6 1.396192975560000e-6 1.582169515790000e-6 1.792929837410000e-6
2.031780269270000e-6 2.302468770370000e-6 2.609244164540000e-6 2.956924767960000e-6
3.350972978700001e-6 3.797584859360001e-6 4.303785501510000e-6 4.877545130770001e-6
5.527903030890000e-6 6.265117130069999e-6 7.100825410960000e-6 8.048238776590001e-6
9.122352232459999e-6 1.034019397690000e-5 1.172110269320000e-5 1.328705072280000e-5
1.506300862230000e-5 1.707736780850000e-5 1.936242183570000e-5 2.195491951830000e-5
2.489670491970000e-5 2.823545232510000e-5 3.202551580570000e-5 3.632891426930000e-5
4.121647318799999e-5 4.676915534930000e-5 5.307961182330000e-5 6.025399679410000e-5
6.841410426929999e-5 7.769987573990001e-5 8.827237989240000e-5 1.003173313490000e-4
1.140493066960000e-4 1.297167695130000e-4 1.476081390490000e-4 1.680590214830000e-4
1.914612129760000e-4 2.182733512020000e-4 2.490341536260000e-4 2.843787452420000e-4
3.250585431840000e-4 3.719662664260000e-4 4.261669326040000e-4 4.889364311770000e-4
5.618105446670000e-4 6.466460944020000e-4 7.456987916399999e-4 8.617222482709998e-4
9.980933225380001e-4 1.158973441600000e-3 1.349513932100000e-3 1.576120013340000e-3
1.846788999360000e-3 2.171544994830001e-3 2.562994103540000e-3 3.037034946490000e-3
3.613761045370000e-3 4.318598701870000e-3 5.183727843570001e-3 6.249827893559999e-3
7.568179438240000e-3 9.203115930170000e-3 1.123476407400000e-2 1.376189418320000e-2
1.690455810730000e-2 2.080594207900000e-2 2.563257675710000e-2 3.157178154020000e-2
3.882487588330000e-2 4.759478914130000e-2 5.806696982739999e-2 7.038361776680000e-2
8.461273934160001e-2 1.007158272360000e-1 1.185195951560000e-1 1.376980286060000e-1
1.577699054470000e-1 1.781137775650000e-1 1.979986568760000e-1 2.166257923540000e-1
2.331760496350000e-1 2.468589884230000e-1 2.569619047790000e-1 2.628977237240000e-1
2.642502914690000e-1 2.608133562470000e-1 2.526186617080000e-1 2.399478399150000e-1
2.233248433680000e-1 2.034870869670000e-1 1.813363670300000e-1 1.578730122500000e-1
1.341194102450000e-1 1.110408466680000e-1 8.947284020640002e-2 7.006374477760000e-2
5.323969699650000e-2 3.919569631969999e-2 2.791257201870000e-2 1.919549842680000e-2
1.272622019130000e-2 8.119829040690000e-3 4.977046547890000e-3 2.925392859780000e-3
1.645771954650000e-3 8.844658156010000e-4 4.531369650360000e-4 2.208376106870000e-4
1.021419284280000e-4 4.472340525309999e-5 1.848765571430000e-5 7.193555808480000e-6
2.625794357160000e-6 8.955863664930002e-7 2.839860870220000e-7 8.357246726629999e-8
2.272742882330000e-8 5.682494620879997e-9 1.299162366770000e-9 2.700222908460001e-10
5.070532978910000e-11 8.545693998539999e-12 1.283519961970000e-12 1.704992679480000e-13
1.986868978620000e-14 2.013434102150000e-15 1.757609615550000e-16 1.308239819480000e-17
8.213934658179999e-19 4.328701618030001e-20 2.232036449490001e-21 9.468531588699999e-23
3.263119255789999e-24
</PP_RHOATOM>
</UPF>
