<UPF version="2.0.1">
<PP_INFO>
Generated by new atomic code, or converted to UPF format
Author:
Generation date:
Pseudopotential type: NC
Element: O
Functional:  SLA  PZ   NOGX NOGC
Suggested minimum cutoff for wavefunctions:   0. Ry
Suggested minimum cutoff for charge density:   0. Ry
The Pseudo was generated with a Non-Relativistic Calculation
L component and cutoff radius for Local Potential:  0   0.0000
Valence configuration:
nl pn  l   occ       Rcut    Rcut US       E pseu
2S  0  0  2.00      0.000      0.000     0.000000
2P  0  1  4.00      0.000      0.000     0.000000
Generation configuration: not available.
</PP_INFO>
<!--
END OF HUMAN READABLE SECTION
-->
<PP_HEADER generated="Generated by new atomic code, or converted to UPF format" author="" date="" comment="" element="O " pseudo_type="NC" relativistic="no" is_ultrasoft="false" is_paw="false" is_coulomb="false" has_so="false" has_wfc="false" has_gipaw="false" paw_as_gipaw="false" core_correction="false" functional=" SLA  PZ   NOGX NOGC" z_valence="6.000000000000e0" total_psenergy="0.000000000000e0" wfc_cutoff="0.000000000000e0" rho_cutoff="0.000000000000e0" l_max="0" l_max_rho="0" l_local="0" mesh_size="921" number_of_wfc="2" number_of_proj="1"/>
<PP_MESH dx="1.400000000000e-2" mesh="921" xmin="-6.000000000001e0" rmax="1.215782949740e2" zmesh="8.000000000000e0">
<PP_R>
3.098440220830001e-4 3.142123453060000e-4 3.186422551540000e-4 3.231346199050000e-4
3.276903200750000e-4 3.323102485970000e-4 3.369953109920000e-4 3.417464255460000e-4
3.465645234940000e-4 3.514505491980000e-4 3.564054603350000e-4 3.614302280830000e-4
3.665258373130000e-4 3.716932867800000e-4 3.769335893210001e-4 3.822477720530000e-4
3.876368765720000e-4 3.931019591590000e-4 3.986440909890000e-4 4.042643583370000e-4
4.099638627929999e-4 4.157437214790000e-4 4.216050672650001e-4 4.275490489939999e-4
4.335768317060000e-4 4.396895968640000e-4 4.458885425910000e-4 4.521748839000001e-4
4.585498529340000e-4 4.650146992060000e-4 4.715706898490001e-4 4.782191098560000e-4
4.849612623400001e-4 4.917984687840001e-4 4.987320693020000e-4 5.057634229030000e-4
5.128939077529999e-4 5.201249214510000e-4 5.274578812990001e-4 5.348942245810000e-4
5.424354088420000e-4 5.500829121810000e-4 5.578382335310001e-4 5.657028929610000e-4
5.736784319680000e-4 5.817664137850000e-4 5.899684236820000e-4 5.982860692780000e-4
6.067209808589999e-4 6.152748116950001e-4 6.239492383640001e-4 6.327459610810000e-4
6.416667040310000e-4 6.507132157099999e-4 6.598872692629999e-4 6.691906628319999e-4
6.786252199140000e-4 6.881927897120001e-4 6.978952475000000e-4 7.077344949900000e-4
7.177124607070001e-4 7.278311003639999e-4 7.380923972460001e-4 7.484983626019998e-4
7.590510360320001e-4 7.697524858960001e-4 7.806048097109999e-4 7.916101345680000e-4
8.027706175460001e-4 8.140884461340001e-4 8.255658386639999e-4 8.372050447419998e-4
8.490083456880001e-4 8.609780549880000e-4 8.731165187429999e-4 8.854261161320000e-4
8.979092598730000e-4 9.105683967040001e-4 9.234060078550000e-4 9.364246095410000e-4
9.496267534469998e-4 9.630150272380000e-4 9.765920550559999e-4 9.903604980440001e-4
1.004323054860000e-3 1.018482462210000e-3 1.032841495380000e-3 1.047402968800000e-3
1.062169736540000e-3 1.077144692960000e-3 1.092330773180000e-3 1.107730953740000e-3
1.123348253100000e-3 1.139185732320000e-3 1.155246495590000e-3 1.171533690880000e-3
1.188050510510000e-3 1.204800191850000e-3 1.221786017880000e-3 1.239011317890000e-3
1.256479468080000e-3 1.274193892270000e-3 1.292158062540000e-3 1.310375499920000e-3
1.328849775100000e-3 1.347584509090000e-3 1.366583373960000e-3 1.385850093540000e-3
1.405388444180000e-3 1.425202255460000e-3 1.445295410930000e-3 1.465671848940000e-3
1.486335563320000e-3 1.507290604230000e-3 1.528541078920000e-3 1.550091152560000e-3
1.571945049020000e-3 1.594107051750000e-3 1.616581504560000e-3 1.639372812520000e-3
1.662485442810000e-3 1.685923925560000e-3 1.709692854790000e-3 1.733796889310000e-3
1.758240753560000e-3 1.783029238620000e-3 1.808167203130000e-3 1.833659574200000e-3
1.859511348410000e-3 1.885727592800000e-3 1.912313445840000e-3 1.939274118430000e-3
1.966614894960000e-3 1.994341134310000e-3 2.022458270900000e-3 2.050971815790001e-3
2.079887357720000e-3 2.109210564220000e-3 2.138947182760000e-3 2.169103041780000e-3
2.199684051950000e-3 2.230696207240000e-3 2.262145586120000e-3 2.294038352780000e-3
2.326380758300000e-3 2.359179141890000e-3 2.392439932150000e-3 2.426169648300000e-3
2.460374901470000e-3 2.495062395990000e-3 2.530238930730000e-3 2.565911400390000e-3
2.602086796910000e-3 2.638772210770000e-3 2.675974832440000e-3 2.713701953730000e-3
2.751960969300000e-3 2.790759378020000e-3 2.830104784520000e-3 2.870004900620000e-3
2.910467546860000e-3 2.951500654060000e-3 2.993112264840000e-3 3.035310535210000e-3
3.078103736150000e-3 3.121500255280000e-3 3.165508598460000e-3 3.210137391450000e-3
3.255395381660000e-3 3.301291439770000e-3 3.347834561580000e-3 3.395033869680000e-3
3.442898615290000e-3 3.491438180040001e-3 3.540662077860000e-3 3.590579956780000e-3
3.641201600870001e-3 3.692536932119999e-3 3.744596012440000e-3 3.797389045560000e-3
3.850926379090000e-3 3.905218506520000e-3 3.960276069280000e-3 4.016109858830000e-3
4.072730818769999e-3 4.130150046990001e-3 4.188378797830000e-3 4.247428484330000e-3
4.307310680410001e-3 4.368037123180000e-3 4.429619715200000e-3 4.492070526870000e-3
4.555401798740000e-3 4.619625943950000e-3 4.684755550629999e-3 4.750803384399999e-3
4.817782390840000e-3 4.885705698050000e-3 4.954586619220000e-3 5.024438655230000e-3
5.095275497299999e-3 5.167111029670001e-3 5.239959332360000e-3 5.313834683840001e-3
5.388751563940000e-3 5.464724656590001e-3 5.541768852780001e-3 5.619899253390001e-3
5.699131172250000e-3 5.779480139070001e-3 5.860961902500000e-3 5.943592433219999e-3
6.027387927090000e-3 6.112364808280000e-3 6.198539732550000e-3 6.285929590450000e-3
6.374551510670000e-3 6.464422863390000e-3 6.555561263700000e-3 6.647984574990000e-3
6.741710912540000e-3 6.836758647020000e-3 6.933146408080000e-3 7.030893088029999e-3
7.130017845530000e-3 7.230540109350001e-3 7.332479582189999e-3 7.435856244500000e-3
7.540690358430000e-3 7.647002471819999e-3 7.754813422169999e-3 7.864144340779999e-3
7.975016656849999e-3 8.087452101720000e-3 8.201472713099999e-3 8.317100839380000e-3
8.434359144049999e-3 8.553270610109999e-3 8.673858544600000e-3 8.796146583130000e-3
8.920158694550000e-3 9.045919185630000e-3 9.173452705830002e-3 9.302784252120000e-3
9.433939173920001e-3 9.566943177990000e-3 9.701822333550002e-3 9.838603077349999e-3
9.977312218849999e-3 1.011797694550000e-2 1.026062482800000e-2 1.040528382580000e-2
1.055198229260000e-2 1.070074898160000e-2 1.085161305180000e-2 1.100460407280000e-2
1.115975203150000e-2 1.131708733720000e-2 1.147664082840000e-2 1.163844377780000e-2
1.180252789950000e-2 1.196892535450000e-2 1.213766875710000e-2 1.230879118170000e-2
1.248232616880000e-2 1.265830773170000e-2 1.283677036350000e-2 1.301774904340000e-2
1.320127924380000e-2 1.338739693710000e-2 1.357613860310000e-2 1.376754123580000e-2
1.396164235060000e-2 1.415847999190000e-2 1.435809274070000e-2 1.456051972170000e-2
1.476580061110000e-2 1.497397564470000e-2 1.518508562550000e-2 1.539917193170000e-2
1.561627652480000e-2 1.583644195820000e-2 1.605971138490000e-2 1.628612856640000e-2
1.651573788120000e-2 1.674858433360000e-2 1.698471356210000e-2 1.722417184880000e-2
1.746700612840000e-2 1.771326399710000e-2 1.796299372220000e-2 1.821624425160000e-2
1.847306522320000e-2 1.873350697470000e-2 1.899762055360000e-2 1.926545772690000e-2
1.953707099160000e-2 1.981251358470000e-2 2.009183949400000e-2 2.037510346810000e-2
2.066236102770000e-2 2.095366847620000e-2 2.124908291080000e-2 2.154866223370000e-2
2.185246516340000e-2 2.216055124620000e-2 2.247298086800000e-2 2.278981526600000e-2
2.311111654080000e-2 2.343694766830000e-2 2.376737251270000e-2 2.410245583810000e-2
2.444226332210000e-2 2.478686156790000e-2 2.513631811790000e-2 2.549070146680000e-2
2.585008107470000e-2 2.621452738130000e-2 2.658411181920000e-2 2.695890682810000e-2
2.733898586900000e-2 2.772442343870000e-2 2.811529508420000e-2 2.851167741750000e-2
2.891364813080000e-2 2.932128601170000e-2 2.973467095860000e-2 3.015388399610000e-2
3.057900729150000e-2 3.101012417020000e-2 3.144731913249999e-2 3.189067787000000e-2
3.234028728250000e-2 3.279623549480000e-2 3.325861187419999e-2 3.372750704810000e-2
3.420301292130000e-2 3.468522269450000e-2 3.517423088250000e-2 3.567013333230000e-2
3.617302724240000e-2 3.668301118160000e-2 3.720018510849999e-2 3.772465039080000e-2
3.825650982530000e-2 3.879586765820000e-2 3.934282960530000e-2 3.989750287310001e-2
4.045999617910000e-2 4.103041977380000e-2 4.160888546230001e-2 4.219550662540001e-2
4.279039824300001e-2 4.339367691560000e-2 4.400546088770000e-2 4.462587007110000e-2
4.525502606790000e-2 4.589305219470000e-2 4.654007350660000e-2 4.719621682200001e-2
4.786161074690000e-2 4.853638570070000e-2 4.922067394160000e-2 4.991460959200000e-2
5.061832866580001e-2 5.133196909400000e-2 5.205567075249999e-2 5.278957548920000e-2
5.353382715160000e-2 5.428857161550001e-2 5.505395681320000e-2 5.583013276280000e-2
5.661725159710000e-2 5.741546759390000e-2 5.822493720620000e-2 5.904581909260001e-2
5.987827414860001e-2 6.072246553800000e-2 6.157855872500000e-2 6.244672150670000e-2
6.332712404570000e-2 6.421993890369999e-2 6.512534107540001e-2 6.604350802240000e-2
6.697461970840001e-2 6.791885863430000e-2 6.887640987389999e-2 6.984746111039999e-2
7.083220267280000e-2 7.183082757370000e-2 7.284353154669999e-2 7.387051308519999e-2
7.491197348070000e-2 7.596811686280001e-2 7.703915023900000e-2 7.812528353530000e-2
7.922672963729999e-2 8.034370443189999e-2 8.147642684979999e-2 8.262511890820001e-2
8.379000575450000e-2 8.497131570999999e-2 8.616928031550000e-2 8.738413437580000e-2
8.861611600620000e-2 8.986546667899999e-2 9.113243127100001e-2 9.241725811120000e-2
9.372019902990001e-2 9.504150940760001e-2 9.638144822539999e-2 9.774027811570001e-2
9.911826541330001e-2 1.005156802080000e-1 1.019327963980000e-1 1.033698917430000e-1
1.048272479170000e-1 1.063051505680000e-1 1.078038893680000e-1 1.093237580750000e-1
1.108650545900000e-1 1.124280810090000e-1 1.140131436930000e-1 1.156205533180000e-1
1.172506249410000e-1 1.189036780630000e-1 1.205800366850000e-1 1.222800293810000e-1
1.240039893550000e-1 1.257522545070000e-1 1.275251675030000e-1 1.293230758410000e-1
1.311463319160000e-1 1.329952930910000e-1 1.348703217700000e-1 1.367717854630000e-1
1.387000568640000e-1 1.406555139210000e-1 1.426385399080000e-1 1.446495235060000e-1
1.466888588740000e-1 1.487569457280000e-1 1.508541894190000e-1 1.529810010140000e-1
1.551377973750000e-1 1.573250012410000e-1 1.595430413110000e-1 1.617923523280000e-1
1.640733751640000e-1 1.663865569070000e-1 1.687323509470000e-1 1.711112170680000e-1
1.735236215360000e-1 1.759700371890000e-1 1.784509435330000e-1 1.809668268330000e-1
1.835181802100000e-1 1.861055037380000e-1 1.887293045410000e-1 1.913900968920000e-1
1.940884023140000e-1 1.968247496840000e-1 1.995996753360000e-1 2.024137231630000e-1
2.052674447270000e-1 2.081613993680000e-1 2.110961543100000e-1 2.140722847730000e-1
2.170903740900000e-1 2.201510138150000e-1 2.232548038440000e-1 2.264023525290000e-1
2.295942767990000e-1 2.328312022830000e-1 2.361137634280000e-1 2.394426036270000e-1
2.428183753420000e-1 2.462417402360000e-1 2.497133693000000e-1 2.532339429840000e-1
2.568041513300000e-1 2.604246941130000e-1 2.640962809700000e-1 2.678196315430000e-1
2.715954756210000e-1 2.754245532820000e-1 2.793076150370000e-1 2.832454219790000e-1
2.872387459300000e-1 2.912883695950000e-1 2.953950867130000e-1 2.995597022140000e-1
3.037830323750000e-1 3.080659049830000e-1 3.124091594950000e-1 3.168136472020000e-1
3.212802313980000e-1 3.258097875490000e-1 3.304032034600000e-1 3.350613794570000e-1
3.397852285570000e-1 3.445756766500000e-1 3.494336626790000e-1 3.543601388240000e-1
3.593560706900000e-1 3.644224374970000e-1 3.695602322680000e-1 3.747704620280000e-1
3.800541479990000e-1 3.854123257990000e-1 3.908460456480000e-1 3.963563725740000e-1
4.019443866180000e-1 4.076111830479999e-1 4.133578725750001e-1 4.191855815689999e-1
4.250954522780000e-1 4.310886430570000e-1 4.371663285900000e-1 4.433297001230000e-1
4.495799656960000e-1 4.559183503820000e-1 4.623460965240000e-1 4.688644639810001e-1
4.754747303749999e-1 4.821781913370000e-1 4.889761607690001e-1 4.958699710930000e-1
5.028609735200000e-1 5.099505383060000e-1 5.171400550310000e-1 5.244309328630000e-1
5.318246008360000e-1 5.393225081330000e-1 5.469261243690000e-1 5.546369398750000e-1
5.624564659980001e-1 5.703862353890000e-1 5.784278023070000e-1 5.865827429269999e-1
5.948526556419999e-1 6.032391613820000e-1 6.117439039290000e-1 6.203685502400001e-1
6.291147907720001e-1 6.379843398169999e-1 6.469789358350000e-1 6.561003417959999e-1
6.653503455250000e-1 6.747307600510000e-1 6.842434239660000e-1 6.938902017829999e-1
7.036729843000000e-1 7.135936889760000e-1 7.236542602979999e-1 7.338566701730000e-1
7.442029183040000e-1 7.546950325900000e-1 7.653350695180000e-1 7.761251145690000e-1
7.870672826280000e-1 7.981637183940000e-1 8.094165968040000e-1 8.208281234580001e-1
8.324005350530001e-1 8.441360998160000e-1 8.560371179579999e-1 8.681059221160000e-1
8.803448778129999e-1 8.927563839240001e-1 9.053428731449999e-1 9.181068124670000e-1
9.310507036640001e-1 9.441770837789999e-1 9.574885256260000e-1 9.709876382880001e-1
9.846770676369999e-1 9.985594968419999e-1 1.012637646910000e0 1.026914277190000e0
1.041392185960000e0 1.056074210930000e0 1.070963229830000e0 1.086062160950000e0
1.101373963730000e0 1.116901639340000e0 1.132648231240000e0 1.148616825820000e0
1.164810552970000e0 1.181232586720000e0 1.197886145850000e0 1.214774494490000e0
1.231900942820000e0 1.249268847670000e0 1.266881613230000e0 1.284742691630000e0
1.302855583710000e0 1.321223839660000e0 1.339851059720000e0 1.358740894870000e0
1.377897047580000e0 1.397323272530000e0 1.417023377310000e0 1.437001223210000e0
1.457260725950000e0 1.477805856460000e0 1.498640641640000e0 1.519769165190000e0
1.541195568360000e0 1.562924050800000e0 1.584958871350000e0 1.607304348920000e0
1.629964863290000e0 1.652944855980000e0 1.676248831160000e0 1.699881356480000e0
1.723847063980000e0 1.748150651030000e0 1.772796881200000e0 1.797790585240000e0
1.823136661990000e0 1.848840079350000e0 1.874905875300000e0 1.901339158790000e0
1.928145110850000e0 1.955328985520000e0 1.982896110940000e0 2.010851890340000e0
2.039201803140000e0 2.067951406030000e0 2.097106334020000e0 2.126672301560000e0
2.156655103680000e0 2.187060617100000e0 2.217894801410000e0 2.249163700190000e0
2.280873442270000e0 2.313030242840000e0 2.345640404740000e0 2.378710319670000e0
2.412246469440000e0 2.446255427240000e0 2.480743858930000e0 2.515718524360000e0
2.551186278680000e0 2.587154073670000e0 2.623628959150000e0 2.660618084300000e0
2.698128699110000e0 2.736168155790000e0 2.774743910180000e0 2.813863523260000e0
2.853534662600000e0 2.893765103870000e0 2.934562732370000e0 2.975935544550000e0
3.017891649630000e0 3.060439271140000e0 3.103586748530000e0 3.147342538870000e0
3.191715218420000e0 3.236713484370000e0 3.282346156520000e0 3.328622179030000e0
3.375550622150000e0 3.423140683990000e0 3.471401692360000e0 3.520343106580000e0
3.569974519320000e0 3.620305658490000e0 3.671346389160000e0 3.723106715480000e0
3.775596782630000e0 3.828826878840000e0 3.882807437370000e0 3.937549038590000e0
3.993062412030000e0 4.049358438490000e0 4.106448152160000e0 4.164342742820000e0
4.223053557980000e0 4.282592105160000e0 4.342970054110000e0 4.404199239090000e0
4.466291661220000e0 4.529259490810000e0 4.593115069760000e0 4.657870913970000e0
4.723539715790000e0 4.790134346520000e0 4.857667858920000e0 4.926153489760000e0
4.995604662460000e0 5.066034989670000e0 5.137458275950000e0 5.209888520500000e0
5.283339919880000e0 5.357826870800000e0 5.433363972940000e0 5.509966031810000e0
5.587648061660000e0 5.666425288420000e0 5.746313152680000e0 5.827327312710000e0
5.909483647550000e0 5.992798260100000e0 6.077287480300000e0 6.162967868300000e0
6.249856217730000e0 6.337969558990000e0 6.427325162570000e0 6.517940542450000e0
6.609833459560000e0 6.703021925180000e0 6.797524204550000e0 6.893358820430000e0
6.990544556710000e0 7.089100462100000e0 7.189045853880000e0 7.290400321660000e0
7.393183731240000e0 7.497416228490000e0 7.603118243340000e0 7.710310493700000e0
7.819013989590000e0 7.929250037270000e0 8.041040243330000e0 8.154406519020000e0
8.269371084499999e0 8.385956473180000e0 8.504185536180000e0 8.624081446760000e0
8.745667704920001e0 8.868968141950001e0 8.994006925130000e0 9.120808562450000e0
9.249397907460001e0 9.379800164060001e0 9.512040891530001e0 9.646146009460001e0
9.782141802889999e0 9.920054927420001e0 1.005991241450000e1 1.020174167660000e1
1.034557051270000e1 1.049142711380000e1 1.063934006820000e1 1.078933836720000e1
1.094145141120000e1 1.109570901460000e1 1.125214141260000e1 1.141077926620000e1
1.157165366920000e1 1.173479615330000e1 1.190023869500000e1 1.206801372160000e1
1.223815411750000e1 1.241069323080000e1 1.258566487980000e1 1.276310335930000e1
1.294304344790000e1 1.312552041450000e1 1.331057002510000e1 1.349822855010000e1
1.368853277100000e1 1.388151998820000e1 1.407722802780000e1 1.427569524910000e1
1.447696055240000e1 1.468106338630000e1 1.488804375560000e1 1.509794222920000e1
1.531079994770000e1 1.552665863210000e1 1.574556059130000e1 1.596754873080000e1
1.619266656090000e1 1.642095820550000e1 1.665246841050000e1 1.688724255260000e1
1.712532664830000e1 1.736676736290000e1 1.761161201940000e1 1.785990860830000e1
1.811170579650000e1 1.836705293700000e1 1.862600007860000e1 1.888859797590000e1
1.915489809890000e1 1.942495264320000e1 1.969881454040000e1 1.997653746840000e1
2.025817586160000e1 2.054378492210000e1 2.083342063030000e1 2.112713975560000e1
2.142499986790000e1 2.172705934880000e1 2.203337740290000e1 2.234401406950000e1
2.265903023440000e1 2.297848764170000e1 2.330244890620000e1 2.363097752530000e1
2.396413789160000e1 2.430199530570000e1 2.464461598860000e1 2.499206709520000e1
2.534441672690000e1 2.570173394550000e1 2.606408878610000e1 2.643155227170000e1
2.680419642600000e1 2.718209428870000e1 2.756531992890000e1 2.795394846010000e1
2.834805605460000e1 2.874771995890000e1 2.915301850830000e1 2.956403114270000e1
2.998083842180000e1 3.040352204120000e1 3.083216484830000e1 3.126685085840000e1
3.170766527140000e1 3.215469448820000e1 3.260802612810000e1 3.306774904560001e1
3.353395334770000e1 3.400673041200001e1 3.448617290430000e1 3.497237479700000e1
3.546543138700001e1 3.596543931520000e1 3.647249658460000e1 3.698670258010000e1
3.750815808770000e1 3.803696531430000e1 3.857322790790000e1 3.911705097770001e1
3.966854111470000e1 4.022780641280000e1 4.079495648970000e1 4.137010250870000e1
4.195335720020000e1 4.254483488400000e1 4.314465149160000e1 4.375292458910000e1
4.436977339990000e1 4.499531882820000e1 4.562968348320000e1 4.627299170210001e1
4.692536957560001e1 4.758694497170000e1 4.825784756140000e1 4.893820884370000e1
4.962816217160000e1 5.032784277820000e1 5.103738780310001e1 5.175693631940000e1
5.248662936080001e1 5.322660994970001e1 5.397702312450001e1 5.473801596870000e1
5.550973763920000e1 5.629233939600001e1 5.708597463150000e1 5.789079890080000e1
5.870696995200000e1 5.953464775730001e1 6.037399454410000e1 6.122517482710000e1
6.208835544040000e1 6.296370557020000e1 6.385139678780000e1 6.475160308350000e1
6.566450090080000e1 6.659026917049999e1 6.752908934610000e1 6.848114543940000e1
6.944662405640000e1 7.042571443410001e1 7.141860847730000e1 7.242550079630000e1
7.344658874540001e1 7.448207246100001e1 7.553215490120000e1 7.659704188570000e1
7.767694213550000e1 7.877206731470000e1 7.988263207120001e1 8.100885407929999e1
8.215095408220000e1 8.330915593509999e1 8.448368664929999e1 8.567477643649999e1
8.688265875410002e1 8.810757035100002e1 8.934975131380000e1 9.060944511390000e1
9.188689865520001e1 9.318236232290001e1 9.449609003190000e1 9.582833927710000e1
9.717937118350001e1 9.854945055780000e1 9.993884593990002e1 1.013478296560000e2
1.027766778710000e2 1.042256706430000e2 1.056950919810000e2 1.071852298960000e2
1.086963764580000e2 1.102288278580000e2 1.117828844620000e2 1.133588508680000e2
1.149570359730000e2 1.165777530240000e2 1.182213196880000e2 1.198880581100000e2
1.215782949740000e2
</PP_R>
<PP_RAB>
4.337816309170001e-6 4.398972834280000e-6 4.460991572160000e-6 4.523884678660001e-6
4.587664481050000e-6 4.652343480359999e-6 4.717934353880000e-6 4.784449957650000e-6
4.851903328920000e-6 4.920307688769999e-6 4.989676444690000e-6 5.060023193160000e-6
5.131361722380000e-6 5.203706014919999e-6 5.277070250500000e-6 5.351468808740000e-6
5.426916272000000e-6 5.503427428219999e-6 5.581017273839999e-6 5.659701016710001e-6
5.739494079099999e-6 5.820412100700000e-6 5.902470941710001e-6 5.985686685919999e-6
6.070075643879999e-6 6.155654356099999e-6 6.242439596280001e-6 6.330448374600000e-6
6.419697941070001e-6 6.510205788890000e-6 6.601989657890000e-6 6.695067537990001e-6
6.789457672769999e-6 6.885178562980000e-6 6.982248970230001e-6 7.080687920640000e-6
7.180514708540001e-6 7.281748900320001e-6 7.384410338189999e-6 7.488519144130001e-6
7.594095723790000e-6 7.701160770530000e-6 7.809735269429998e-6 7.919840501449999e-6
8.031498047559998e-6 8.144729793000000e-6 8.259557931550001e-6 8.376004969899999e-6
8.494093732030001e-6 8.613847363729999e-6 8.735289337090000e-6 8.858443455129999e-6
8.983333856440002e-6 9.109985019940002e-6 9.238421769680000e-6 9.368669279650000e-6
9.500753078800003e-6 9.634699055970000e-6 9.770533464990001e-6 9.908282929860000e-6
1.004797444990000e-5 1.018963540510000e-5 1.033329356140000e-5 1.047897707640000e-5
1.062671450450000e-5 1.077653480250000e-5 1.092846733600000e-5 1.108254188400000e-5
1.123878864560000e-5 1.139723824590000e-5 1.155792174130000e-5 1.172087062640000e-5
1.188611683960000e-5 1.205369276980000e-5 1.222363126240000e-5 1.239596562580000e-5
1.257072963820000e-5 1.274795755390000e-5 1.292768411000000e-5 1.310994453360000e-5
1.329477454830000e-5 1.348221038130000e-5 1.367228877080000e-5 1.386504697260000e-5
1.406052276800000e-5 1.425875447090000e-5 1.445978093540000e-5 1.466364156310000e-5
1.487037631160000e-5 1.508002570140000e-5 1.529263082460000e-5 1.550823335230000e-5
1.572687554340000e-5 1.594860025250000e-5 1.617345093830000e-5 1.640147167230000e-5
1.663270714720000e-5 1.686720268590000e-5 1.710500425040000e-5 1.734615845050000e-5
1.759071255310000e-5 1.783871449170000e-5 1.809021287550000e-5 1.834525699890000e-5
1.860389685140000e-5 1.886618312730000e-5 1.913216723540000e-5 1.940190130960000e-5
1.967543821859999e-5 1.995283157640000e-5 2.023413575310000e-5 2.051940588510000e-5
2.080869788650000e-5 2.110206845920000e-5 2.139957510490000e-5 2.170127613580000e-5
2.200723068630000e-5 2.231749872450000e-5 2.263214106380000e-5 2.295121937530000e-5
2.327479619930000e-5 2.360293495780000e-5 2.393569996710000e-5 2.427315645030000e-5
2.461537054980000e-5 2.496240934070000e-5 2.531434084380000e-5 2.567123403880000e-5
2.603315887780000e-5 2.640018629930000e-5 2.677238824180000e-5 2.714983765810000e-5
2.753260852950000e-5 2.792077588030000e-5 2.831441579260000e-5 2.871360542100000e-5
2.911842300800000e-5 2.952894789910000e-5 2.994526055860000e-5 3.036744258500001e-5
3.079557672730000e-5 3.122974690130000e-5 3.167003820570000e-5 3.211653693890000e-5
3.256933061620000e-5 3.302850798650001e-5 3.349415905020000e-5 3.396637507619999e-5
3.444524862050000e-5 3.493087354380000e-5 3.542334503020000e-5 3.592275960550000e-5
3.642921515680000e-5 3.694281095080000e-5 3.746364765410000e-5 3.799182735220000e-5
3.852745357020000e-5 3.907063129230001e-5 3.962146698330000e-5 4.018006860860000e-5
4.074654565610000e-5 4.132100915690000e-5 4.190357170780000e-5 4.249434749290000e-5
4.309345230610000e-5 4.370100357400000e-5 4.431712037840000e-5 4.494192348040000e-5
4.557553534320000e-5 4.621808015680000e-5 4.686968386210000e-5 4.753047417549999e-5
4.820058061400000e-5 4.888013452060001e-5 4.956926909000001e-5 5.026811939490000e-5
5.097682241209998e-5 5.169551704969999e-5 5.242434417410000e-5 5.316344663790000e-5
5.391296930730000e-5 5.467305909130000e-5 5.544386497000000e-5 5.622553802370000e-5
5.701823146280001e-5 5.782210065780001e-5 5.863730316969999e-5 5.946399878070000e-5
6.030234952580001e-5 6.115251972449999e-5 6.201467601279999e-5 6.288898737610000e-5
6.377562518239999e-5 6.467476321529999e-5 6.558657770880001e-5 6.651124738160002e-5
6.744895347170000e-5 6.839987977270000e-5 6.936421266900000e-5 7.034214117320001e-5
7.133385696210000e-5 7.233955441540001e-5 7.335943065299999e-5 7.439368557380001e-5
7.544252189520001e-5 7.650614519229999e-5 7.758476393890000e-5 7.867858954750000e-5
7.978783641160001e-5 8.091272194700000e-5 8.205346663500000e-5 8.321029406510000e-5
8.438343097919999e-5 8.557310731599999e-5 8.677955625570000e-5 8.800301426630000e-5
8.924372114940001e-5 9.050192008749999e-5 9.177785769169999e-5 9.307178404989999e-5
9.438395277560002e-5 9.571462105829999e-5 9.706404971310000e-5 9.843250323240003e-5
9.982024983740001e-5 1.012275615310000e-4 1.026547141510000e-4 1.041019874230000e-4
1.055696650180000e-4 1.070580346050000e-4 1.085673879100000e-4 1.100980207710000e-4
1.116502331960000e-4 1.132243294240000e-4 1.148206179830000e-4 1.164394117510000e-4
1.180810280170000e-4 1.197457885420000e-4 1.214340196240000e-4 1.231460521640000e-4
1.248822217240000e-4 1.266428685990000e-4 1.284283378820000e-4 1.302389795300000e-4
1.320751484350000e-4 1.339372044920000e-4 1.358255126700000e-4 1.377404430830000e-4
1.396823710640000e-4 1.416516772370000e-4 1.436487475920000e-4 1.456739735610000e-4
1.477277520960000e-4 1.498104857430000e-4 1.519225827250000e-4 1.540644570190000e-4
1.562365284400000e-4 1.584392227210000e-4 1.606729715970000e-4 1.629382128900000e-4
1.652353905940000e-4 1.675649549630000e-4 1.699273626000000e-4 1.723230765440000e-4
1.747525663630000e-4 1.772163082440000e-4 1.797147850890000e-4 1.822484866080000e-4
1.848179094130000e-4 1.874235571200000e-4 1.900659404440000e-4 1.927455773010000e-4
1.954629929080000e-4 1.982187198870000e-4 2.010132983700000e-4 2.038472761040000e-4
2.067212085550000e-4 2.096356590260001e-4 2.125911987570000e-4 2.155884070430000e-4
2.186278713480000e-4 2.217101874150000e-4 2.248359593880000e-4 2.280057999290000e-4
2.312203303370000e-4 2.344801806700000e-4 2.377859898690000e-4 2.411384058840000e-4
2.445380857980000e-4 2.479856959590000e-4 2.514819121110000e-4 2.550274195230000e-4
2.586229131250000e-4 2.622690976460000e-4 2.659666877500000e-4 2.697164081760000e-4
2.735189938820000e-4 2.773751901860000e-4 2.812857529160000e-4 2.852514485530000e-4
2.892730543880000e-4 2.933513586670000e-4 2.974871607520000e-4 3.016812712720000e-4
3.059345122880000e-4 3.102477174470000e-4 3.146217321520000e-4 3.190574137240000e-4
3.235556315710000e-4 3.281172673570000e-4 3.327432151780000e-4 3.374343817340000e-4
3.421916865090000e-4 3.470160619510000e-4 3.519084536510000e-4 3.568698205350000e-4
3.619011350460000e-4 3.670033833380000e-4 3.721775654689999e-4 3.774246955930000e-4
3.827458021660000e-4 3.881419281420000e-4 3.936141311780000e-4 3.991634838440000e-4
4.047910738310000e-4 4.104980041639999e-4 4.162853934200000e-4 4.221543759460000e-4
4.281061020810000e-4 4.341417383830000e-4 4.402624678550000e-4 4.464694901800001e-4
4.527640219540000e-4 4.591472969270000e-4 4.656205662390000e-4 4.721850986730000e-4
4.788421808980001e-4 4.855931177240000e-4 4.924392323550000e-4 4.993818666519999e-4
5.064223813930000e-4 5.135621565430000e-4 5.208025915189999e-4 5.281451054710001e-4
5.355911375540000e-4 5.431421472149999e-4 5.507996144749999e-4 5.585650402230000e-4
5.664399465070000e-4 5.744258768339999e-4 5.825243964720000e-4 5.907370927560000e-4
5.990655754020001e-4 6.075114768180000e-4 6.160764524280000e-4 6.247621809960000e-4
6.335703649510000e-4 6.425027307260001e-4 6.515610290929999e-4 6.607470355080000e-4
6.700625504560001e-4 6.795093998100000e-4 6.890894351819999e-4 6.988045342890001e-4
7.086566013210001e-4 7.186475673170001e-4 7.287793905359998e-4 7.390540568480000e-4
7.494735801219999e-4 7.600400026170000e-4 7.707553953850001e-4 7.816218586790001e-4
7.926415223590000e-4 8.038165463150001e-4 8.151491208870000e-4 8.266414672969999e-4
8.382958380800000e-4 8.501145175320000e-4 8.620998221500001e-4 8.742541010939998e-4
8.865797366400001e-4 8.990791446519999e-4 9.117547750560000e-4 9.246091123139999e-4
9.376446759180000e-4 9.508640208800001e-4 9.642697382349999e-4 9.778644555450001e-4
9.916508374190000e-4 1.005631586030000e-3 1.019809441650000e-3 1.034187183190000e-3
1.048767628730000e-3 1.063553636080000e-3 1.078548103350000e-3 1.093753969490000e-3
1.109174214920000e-3 1.124811862050000e-3 1.140669975900000e-3 1.156751664720000e-3
1.173060080560000e-3 1.189598419940000e-3 1.206369924420000e-3 1.223377881260000e-3
1.240625624090000e-3 1.258116533510000e-3 1.275854037790000e-3 1.293841613560000e-3
1.312082786420000e-3 1.330581131710000e-3 1.349340275160000e-3 1.368363893620000e-3
1.387655715790000e-3 1.407219522920000e-3 1.427059149580000e-3 1.447178484400000e-3
1.467581470840000e-3 1.488272107950000e-3 1.509254451150000e-3 1.530532613060000e-3
1.552110764260000e-3 1.573993134130000e-3 1.596184011700000e-3 1.618687746450000e-3
1.641508749180000e-3 1.664651492880000e-3 1.688120513600000e-3 1.711920411340000e-3
1.736055850960000e-3 1.760531563090000e-3 1.785352345050000e-3 1.810523061770000e-3
1.836048646820000e-3 1.861934103270000e-3 1.888184504780000e-3 1.914804996480000e-3
1.941800796100000e-3 1.969177194890000e-3 1.996939558720000e-3 2.025093329090000e-3
2.053644024240000e-3 2.082597240190000e-3 2.111958651860000e-3 2.141734014190000e-3
2.171929163250000e-3 2.202550017380000e-3 2.233602578360000e-3 2.265092932590000e-3
2.297027252290000e-3 2.329411796690000e-3 2.362252913260000e-3 2.395557038960000e-3
2.429330701510000e-3 2.463580520650000e-3 2.498313209460000e-3 2.533535575660000e-3