<UPF version="2.0.1">
<PP_INFO>
Generated by new atomic code, or converted to UPF format
Author:
Generation date:
Pseudopotential type: US
Element: C
Functional:  SLA  PW   PBE  PBE
Suggested minimum cutoff for wavefunctions:   0. Ry
Suggested minimum cutoff for charge density:   0. Ry
The Pseudo was generated with a Non-Relativistic Calculation
L component and cutoff radius for Local Potential:  0   0.0000
Valence configuration:
nl pn  l   occ       Rcut    Rcut US       E pseu
2S  0  0  2.00      1.200      1.600     0.000000
2P  0  1  2.00      1.200      1.600     0.000000
Generation configuration: not available.
</PP_INFO>
<!--
END OF HUMAN READABLE SECTION
-->
<PP_HEADER generated="Generated by new atomic code, or converted to UPF format" author="" date="" comment="" element="C " pseudo_type="NC" relativistic="no" is_ultrasoft="false" is_paw="false" is_coulomb="false" has_so="false" has_wfc="false" has_gipaw="false" paw_as_gipaw="false" core_correction="false" functional=" SLA  PZ   NOGX NOGC" z_valence="4.000000000000e0" total_psenergy="0.000000000000e0" wfc_cutoff="0.000000000000e0" rho_cutoff="0.000000000000e0" l_max="0" l_max_rho="0" l_local="0" mesh_size="269" number_of_wfc="2" number_of_proj="1"/>
<PP_MESH dx="4.500000000000e-2" mesh="269" xmin="-5.693147180560e0" rmax="9.703709714770e1" zmesh="6.000000000000e0">
<PP_R>
5.614955832570000e-4 5.873400233030001e-4 6.143740276139999e-4 6.426523492890000e-4
6.722322615920000e-4 7.031736739539999e-4 7.355392533110000e-4 7.693945510190002e-4
8.048081356280001e-4 8.418517317479999e-4 8.806003653209999e-4 9.211325155720001e-4
9.635302739560000e-4 1.007879510420000e-3 1.054270047330000e-3 1.102795841380000e-3
1.153555173870000e-3 1.206650849810000e-3 1.262190406090000e-3 1.320286329280000e-3
1.381056283480000e-3 1.444623348620000e-3 1.511116269730000e-3 1.580669717700000e-3
1.653424562030000e-3 1.729528156140000e-3 1.809134635820000e-3 1.892405231390000e-3
1.979508594280000e-3 2.070621138540000e-3 2.165927398230000e-3 2.265620401090000e-3
2.369902059520000e-3 2.478983579510000e-3 2.593085888420000e-3 2.712440082430000e-3
2.837287894550000e-3 2.967882184280000e-3 3.104487449680000e-3 3.247380363110000e-3
3.396850331530000e-3 3.553200082719999e-3 3.716746278360000e-3 3.887820155370001e-3
4.066768196830001e-3 4.253952833680000e-3 4.449753178770000e-3 4.654565794710000e-3
4.868805497039999e-3 5.092906194380000e-3 5.327321767230000e-3 5.572526987220000e-3
5.829018478720000e-3 6.097315724670000e-3 6.377962118660001e-3 6.671526065560000e-3
6.978602132680001e-3 7.299812254000000e-3 7.635806989790001e-3 7.987266844210001e-3
8.354903643569999e-3 8.739461978020001e-3 9.141720709629999e-3 9.562494549769999e-3
1.000263570930000e-2 1.046303562440000e-2 1.094462676240000e-2 1.144838450970000e-2
1.197532914810000e-2 1.252652792050000e-2 1.310309719280000e-2 1.370620471480000e-2
1.433707198530000e-2 1.499697672610000e-2 1.568725546990000e-2 1.640930626700000e-2
1.716459151710000e-2 1.795464093080000e-2 1.878105462830000e-2 1.964550637970000e-2
2.054974699510000e-2 2.149560787100000e-2 2.248500469870000e-2 2.351994134500000e-2
2.460251391030000e-2 2.573491497400000e-2 2.691943803520000e-2 2.815848215790000e-2
2.945455682990000e-2 3.081028704530000e-2 3.222841862120001e-2 3.371182375860000e-2
3.526350685980000e-2 3.688661061339999e-2 3.858442235930000e-2 4.036038074630000e-2
4.221808269710000e-2 4.416129069309999e-2 4.619394039450000e-2 4.832014861170000e-2
5.054422164269999e-2 5.287066399570000e-2 5.530418751140001e-2 5.784972090650000e-2
6.051241975610000e-2 6.329767693540001e-2 6.621113354190000e-2 6.925869032100000e-2
7.244651961659999e-2 7.578107787240000e-2 7.926911870840001e-2 8.291770659939999e-2
8.673423118270001e-2 9.072642222490000e-2 9.490236527710000e-2 9.927051805100000e-2
1.038397275490000e-1 1.086192479820000e-1 1.136187595110000e-1 1.188483878570000e-1
1.243187248030000e-1 1.300408496530000e-1 1.360263516630000e-1 1.422873535210000e-1
1.488365358960000e-1 1.556871631190000e-1 1.628531100530000e-1 1.703488901880000e-1
1.781896850410000e-1 1.863913749020000e-1 1.949705709940000e-1 2.039446491220000e-1
2.133317848610000e-1 2.231509903680000e-1 2.334221528920000e-1 2.441660750440000e-1
2.554045169410000e-1 2.671602402670000e-1 2.794570543790000e-1 2.923198645290000e-1
3.057747223020000e-1 3.198488783830000e-1 3.345708377500000e-1 3.499704173990000e-1
3.660788067430000e-1 3.829286307760000e-1 4.005540161480000e-1 4.189906602890000e-1
4.382759037040000e-1 4.584488056010000e-1 4.795502230000000e-1 5.016228934840000e-1
5.247115217519999e-1 5.488628701680000e-1 5.741258534650000e-1 6.005516378180000e-1
6.281937444720000e-1 6.571081581380001e-1 6.873534403860000e-1 7.189908482470000e-1
7.520844582860001e-1 7.867012963720001e-1 8.229114734310000e-1 8.607883274470000e-1
9.004085719940001e-1 9.418524516070001e-1 9.852039043040000e-1 1.030550731590000e0
1.077984776300000e0 1.127602108560000e0 1.179503220450000e0 1.233793229440000e0
1.290582091360000e0 1.349984823060000e0 1.412121735380000e0 1.477118676790000e0
1.545107288310000e0 1.616225270120000e0 1.690616660440000e0 1.768432127240000e0
1.849829273450000e0 1.934972956110000e0 2.024035620260000e0 2.117197648240000e0
2.214647724990000e0 2.316583220220000e0 2.423210588150000e0 2.534745785630000e0
2.651414709560000e0 2.773453654370000e0 2.901109790630000e0 3.034641665660000e0
3.174319727120000e0 3.320426870820000e0 3.473259013670000e0 3.633125692980000e0
3.800350693400000e0 3.975272702720000e0 4.158245997780000e0 4.349641162040000e0
4.549845836100000e0 4.759265502850000e0 4.978324308680000e0 5.207465922540000e0
5.447154434500000e0 5.697875295710000e0 5.960136301600000e0 6.234468620330000e0
6.521427868590000e0 6.821595236930000e0 7.135578666850000e0 7.464014082100000e0
7.807566676620000e0 8.166932261840000e0 8.542838675870000e0 8.936047257669999e0
9.347354388979999e0 9.777593107320000e0 1.022763479310000e1 1.069839093460000e1
1.119081497370000e1 1.170590423760000e1 1.224470195800000e1 1.280829938430000e1
1.339783799410000e1 1.401451180430000e1 1.465956979030000e1 1.533431841500000e1
1.604012427480000e1 1.677841686780000e1 1.755069148890000e1 1.835851225800000e1
1.920351528840000e1 2.008741199980000e1 2.101199258530000e1 2.197912963640000e1
2.299078193620000e1 2.404899842640000e1 2.515592235690000e1 2.631379562700000e1
2.752496332580000e1 2.879187848180000e1 3.011710703100000e1 3.150333301430000e1
3.295336401290001e1 3.447013683530001e1 3.605672346450000e1 3.771633728090000e1
3.945233956960000e1 4.126824632830000e1 4.316773538900001e1 4.515465386610000e1
4.723302594850000e1 4.940706104990000e1 5.168116233440000e1 5.405993563420001e1
5.654819877830001e1 5.915099134970000e1 6.187358489310000e1 6.472149359060001e1
6.770048543060000e1 7.081659388980000e1 7.407613015260001e1 7.748569589380001e1
8.105219664930001e1 8.478285580200000e1 8.868522921150001e1 9.276722051760000e1
9.703709714770000e1
</PP_R>
<PP_RAB>
2.526730124659999e-5 2.643030104860000e-5 2.764683124260000e-5 2.891935571799999e-5
3.025045177160000e-5 3.164281532790000e-5 3.309926639900000e-5 3.462275479590000e-5
3.621636610330000e-5 3.788332792870000e-5 3.962701643940001e-5 4.145096320070000e-5
4.335886232800000e-5 4.535457796899999e-5 4.744215212999999e-5 4.962581286200001e-5
5.190998282430000e-5 5.429928824160001e-5 5.679856827389999e-5 5.941288481750000e-5
6.214753275660000e-5 6.500805068800000e-5 6.800023213799999e-5 7.113013729660000e-5
7.440410529140000e-5 7.782876702640000e-5 8.141105861190001e-5 8.515823541270001e-5
8.907788674240001e-5 9.317795123430001e-5 9.746673292030000e-5 1.019529180490000e-4
1.066455926780000e-4 1.115542610780000e-4 1.166888649790000e-4 1.220598037090000e-4
1.276779552550000e-4 1.335546982930000e-4 1.397019352360000e-4 1.461321163400000e-4
1.528582649190000e-4 1.598940037220000e-4 1.672535825260000e-4 1.749519069920000e-4
1.830045688580000e-4 1.914278775160000e-4 2.002388930440000e-4 2.094554607620000e-4
2.190962473670000e-4 2.291807787469999e-4 2.397294795250000e-4 2.507637144250000e-4
2.623058315420000e-4 2.743792076100000e-4 2.870082953400000e-4 3.002186729500000e-4
3.140370959709999e-4 3.284915514300000e-4 3.436113145410000e-4 3.594270079889999e-4
3.759706639610000e-4 3.932757890110000e-4 4.113774319330000e-4 4.303122547400000e-4
4.501186069180000e-4 4.708366030990000e-4 4.925082043070001e-4 5.151773029389998e-4
5.388898116660000e-4 5.636937564240000e-4 5.896393736759999e-4 6.167792121640002e-4
6.451682393360000e-4 6.748639526739999e-4 7.059264961450000e-4 7.384187820159999e-4
7.724066182680000e-4 8.079588418869999e-4 8.451474582730000e-4 8.840477870840001e-4
9.247386147809999e-4 9.673023541940001e-4 1.011825211440000e-3 1.058397360530000e-3
1.107113125970000e-3 1.158071173830000e-3 1.211374711580000e-3 1.267131697110000e-3
1.325455057350000e-3 1.386462917040000e-3 1.450278837950000e-3 1.517032069140000e-3
1.586857808690000e-3 1.659897477610000e-3 1.736299006170000e-3 1.816217133580000e-3
1.899813721370000e-3 1.987258081190000e-3 2.078727317750000e-3 2.174406687520000e-3
2.274489973920000e-3 2.379179879810000e-3 2.488688438010000e-3 2.603237440790000e-3
2.723058889030000e-3 2.848395462090000e-3 2.979501009390000e-3 3.116641064450000e-3
3.260093382750000e-3 3.410148504260000e-3 3.567110341880000e-3 3.731296796970000e-3
3.903040403219999e-3 4.082689000120000e-3 4.270606437470001e-3 4.467173312300000e-3
4.672787739700000e-3 4.887866159170001e-3 5.112844178000000e-3 5.348177453560000e-3
5.594342616150001e-3 5.851838234370001e-3 6.121185824830000e-3 6.402930908449999e-3
6.697644115310000e-3 7.005922340369999e-3 7.328389952380000e-3 7.665700058470000e-3
8.018535826860001e-3 8.387611870570000e-3 8.773675694720000e-3 9.177509210480000e-3
9.599930318729999e-3 1.004179456660000e-2 1.050399688010000e-2 1.098747337700000e-2
1.149320326230000e-2 1.202221081200000e-2 1.257556744710000e-2 1.315439390380000e-2
1.375986250360000e-2 1.439319952720000e-2 1.505568769870000e-2 1.574866878300000e-2
1.647354630340000e-2 1.723178838490000e-2 1.802493072670000e-2 1.885457971300000e-2
1.972241566670000e-2 2.063019625200000e-2 2.157976003500000e-2 2.257303020680000e-2
2.361201847880000e-2 2.469882915760000e-2 2.583566340590000e-2 2.702482370180000e-2
2.826871850120000e-2 2.956986711620000e-2 3.093090481730000e-2 3.235458817110000e-2
3.384380062290000e-2 3.540155833670000e-2 3.703101630440000e-2 3.873547473510000e-2
4.051838573970000e-2 4.238336032230000e-2 4.433417569370000e-2 4.637478292170000e-2
4.850931493330000e-2 5.074209488530000e-2 5.307764492020000e-2 5.552069532479999e-2
5.807619411130000e-2 6.074931703790000e-2 6.354547809200000e-2 6.647034045550000e-2
6.952982797410000e-2 7.273013715550000e-2 7.607774971970000e-2 7.957944572590002e-2
8.324231730539999e-2 8.707378302480000e-2 9.108160291160001e-2 9.527389417069999e-2
9.965914762450000e-2 1.042462449100000e-1 1.090444764670000e-1 1.140635603530000e-1
1.193136619300000e-1 1.248054144470000e-1 1.305499405790000e-1 1.365588749550000e-1
1.428443877200000e-1 1.494192091870000e-1 1.562966556150000e-1 1.634906561840000e-1
1.710157812030000e-1 1.788872716230000e-1 1.871210699000000e-1 1.957338522920000e-1
2.047430626240000e-1 2.141669476280000e-1 2.240245938910000e-1 2.343359665140000e-1
2.451219495530000e-1 2.564043883070000e-1 2.682061335720000e-1 2.805510879150000e-1
2.934642540870000e-1 3.069717856620000e-1 3.211010400080000e-1 3.358806336940000e-1
3.513405004480000e-1 3.675119517830000e-1 3.844277404140000e-1 4.021221265950000e-1
4.206309475039999e-1 4.399916898290000e-1 4.602435656900000e-1 4.814275920550000e-1
5.035866738190000e-1 5.267656906930000e-1 5.510115881090000e-1 5.763734722940001e-1
6.029027097320000e-1 6.306530311940000e-1 6.596806405650000e-1 6.900443286740000e-1
7.218055923650000e-1 7.550287590510000e-1 7.897811170000000e-1 8.261330516120001e-1
8.641581879769999e-1 9.039335399930000e-1 9.455396663380000e-1 9.890608336390001e-1
1.034585187130000e0 1.082204929190000e0 1.132016506060000e0 1.184120803220000e0
1.238623349660000e0 1.295634531680000e0 1.355269816400000e0 1.417649985640000e0
1.482901380580000e0 1.551156157590000e0 1.622552555900000e0 1.697235177640000e0
1.775355280630000e0 1.857071084780000e0 1.942548092510000e0 2.031959423970000e0
2.125486167680000e0 2.223317747240000e0 2.325652305050000e0 2.432697103540000e0
2.544668945020000e0 2.661794610740000e0 2.784311320190000e0 2.912467211580000e0
3.046521844380000e0 3.186746725040000e0 3.333425856860000e0 3.486856315220000e0
3.647348849220000e0 3.815228511090000e0 3.990835314520000e0 4.174524923290000e0
4.366669371650000e0
</PP_RAB>
</PP_MESH>
<PP_LOCAL columns="4">
-2.972331804610000e1 -2.972331577490000e1 -2.972331328990000e1 -2.972331057070000e1
-2.972330759560000e1 -2.972330434020000e1 -2.972330077830000e1 -2.972329688090000e1
-2.972329261650000e1 -2.972328795040000e1 -2.972328284500000e1 -2.972327725880000e1
-2.972327114650000e1 -2.972326445860000e1 -2.972325714080000e1 -2.972324913390000e1
-2.972324037300000e1 -2.972323078700000e1 -2.972322029830000e1 -2.972320882180000e1
-2.972319626450000e1 -2.972318252470000e1 -2.972316749090000e1 -2.972315104140000e1
-2.972313304270000e1 -2.972311334900000e1 -2.972309180080000e1 -2.972306822320000e1
-2.972304242530000e1 -2.972301419800000e1 -2.972298331240000e1 -2.972294951820000e1
-2.972291254160000e1 -2.972287208270000e1 -2.972282781380000e1 -2.972277937600000e1
-2.972272637670000e1 -2.972266838650000e1 -2.972260493520000e1 -2.972253550870000e1
-2.972245954420000e1 -2.972237642620000e1 -2.972228548100000e1 -2.972218597160000e1
-2.972207709150000e1 -2.972195795830000e1 -2.972182760670000e1 -2.972168498030000e1
-2.972152892320000e1 -2.972135817100000e1 -2.972117134000000e1 -2.972096691630000e1
-2.972074324350000e1 -2.972049850930000e1 -2.972023073080000e1 -2.971993773850000e1
-2.971961715880000e1 -2.971926639440000e1 -2.971888260410000e1 -2.971846267890000e1
-2.971800321760000e1 -2.971750049870000e1 -2.971695045090000e1 -2.971634861990000e1
-2.971569013240000e1 -2.971496965690000e1 -2.971418136040000e1 -2.971331886190000e1
-2.971237518020000e1 -2.971134267850000e1 -2.971021300190000e1 -2.970897701110000e1
-2.970762470810000e1 -2.970614515650000e1 -2.970452639310000e1 -2.970275533220000e1
-2.970081766040000e1 -2.969869772240000e1 -2.969637839510000e1 -2.969384095150000e1
-2.969106491050000e1 -2.968802787440000e1 -2.968470535000000e1 -2.968107055460001e1
-2.967709420360000e1 -2.967274427860000e1 -2.966798577500000e1 -2.966278042640000e1
-2.965708640430000e1 -2.965085799060000e1 -2.964404522130000e1 -2.963659349820000e1
-2.962844316650000e1 -2.961952905520000e1 -2.960977997770000e1 -2.959911818910000e1
-2.958745879690000e1 -2.957470912240000e1 -2.956076800760000e1 -2.954552506580000e1
-2.952885987020000e1 -2.951064107800000e1 -2.949072548490000e1 -2.946895700730000e1
-2.944516558670000e1 -2.941916601460000e1 -2.939075667330000e1 -2.935971819000000e1
-2.932581200330000e1 -2.928877883840000e1 -2.924833709430000e1 -2.920418114190000e1
-2.915597953730000e1 -2.910337315690000e1 -2.904597326220000e1 -2.898335950690000e1
-2.891507790380000e1 -2.884063877270000e1 -2.875951469900000e1 -2.867113853800000e1
-2.857490150950000e1 -2.847015143980000e1 -2.835619121530000e1 -2.823227753120000e1
-2.809762003000000e1 -2.795138094460000e1 -2.779267538010000e1 -2.762057238770000e1
-2.743409701080000e1 -2.723223350510001e1 -2.701392995920000e1 -2.677810456840000e1
-2.652365383640000e1 -2.624946299710000e1 -2.595441896250000e1 -2.563742610680000e1
-2.529742518370000e1 -2.493341564820000e1 -2.454448159810000e1 -2.412982147090000e1
-2.368878150420000e1 -2.322089280610000e1 -2.272591165710000e1 -2.220386238890000e1
-2.165508184190000e1 -2.108026400290000e1 -2.048050296520000e1 -1.985733186360000e1
-1.921275493440000e1 -1.854926938310000e1 -1.786987337910000e1 -1.717805629680000e1
-1.647776740650000e1 -1.577335966230000e1 -1.506950616910000e1 -1.437108839990000e1
-1.368305733150000e1 -1.301027133640000e1 -1.235731777250000e1 -1.172832847890000e1
-1.112680239610000e1 -1.055545073500000e1 -1.001608088470000e1 -9.509533985219999e0
-9.035687374309999e0 -8.593526890590001e0 -8.181285766549999e0 -7.796637647570000e0
-7.436922777380000e0 -7.099380503380000e0 -6.781359698540000e0 -6.480482421960000e0
-6.194744835950000e0 -5.922551315150000e0 -5.662689955960000e0 -5.414267161780000e0
-5.176623271950000e0 -4.949249638200000e0 -4.731721394570000e0 -4.523652059330000e0
-4.324668911290000e0 -4.134403719050000e0 -3.952492269970000e0 -3.778577353930000e0
-3.612311994380000e0 -3.453361633280000e0 -3.301405147520000e0 -3.156135035990000e0
-3.017257152510000e0 -2.884490240860000e0 -2.757565406780000e0 -2.636225584900000e0
-2.520225020710000e0 -2.409328773450000e0 -2.303312240320000e0 -2.201960701630000e0
-2.105068885850000e0 -2.012440553960000e0 -1.923888101920000e0 -1.839232180770000e0
-1.758301333320000e0 -1.680931646960000e0 -1.606966421620000e0 -1.536255852460000e0
-1.468656726410000e0 -1.404032132120000e0 -1.342251182720000e0 -1.283188750670000e0
-1.226725214360000e0 -1.172746215820000e0 -1.121142429160000e0 -1.071809339050000e0
-1.024647029140000e0 -9.795599796239999e-1 -9.364568738250000e-1 -8.952504132220000e-1
-8.558571406500000e-1 -8.181972712700000e-1 -7.821945309769999e-1 -7.477760019180000e-1
-7.148719748090000e-1 -6.834158077500000e-1 -6.533437912540000e-1 -6.245950192100000e-1
-5.971112655300001e-1 -5.708368662210001e-1 -5.457186066450000e-1 -5.217056137420000e-1
-4.987492529960000e-1 -4.768030299300000e-1 -4.558224959440000e-1 -4.357651582850000e-1
-4.165903939910000e-1 -3.982593676110000e-1 -3.807349525530000e-1 -3.639816558860000e-1
-3.479655464610000e-1 -3.326541861810000e-1 -3.180165643100000e-1 -3.040230346620000e-1
-2.906452555560000e-1 -2.778561324180000e-1 -2.656297629040000e-1 -2.539413844360000e-1
-2.427673240540000e-1 -2.320849504670000e-1 -2.218726282180000e-1 -2.121096738640000e-1
-2.027763140860000e-1 -1.938536456420000e-1 -1.853235970780000e-1 -1.771688921310000e-1
-1.693730147360000e-1 -1.619201755780000e-1 -1.547952801110000e-1 -1.479838979850000e-1
-1.414722338260000e-1 -1.352470992870000e-1 -1.292958863440000e-1 -1.236065417560000e-1
-1.181675426570000e-1 -1.129678732140000e-1 -1.079970023210000e-1 -1.032448622640000e-1
-9.870182833679999e-2 -9.435869934230000e-2 -9.020667896030000e-2 -8.623735793050001e-2
-8.244269702150000e-2
</PP_LOCAL>
<PP_NONLOCAL>
<PP_BETA.1 index="1" label="2S" angular_momentum="0" cutoff_radius_index="219" cutoff_radius="0.000000000000e0" ultrasoft_cutoff_radius="0.000000000000e0">
1.091191642500000e-2 1.141416825670000e-2 1.193953724110000e-2 1.248908838870000e-2
1.306393359180000e-2 1.366523832210000e-2 1.429421923680000e-2 1.495215087620000e-2
1.564036518330000e-2 1.636025676470000e-2 1.711328336750000e-2 1.790096970420000e-2
1.872491175590000e-2 1.958677772630000e-2 2.048831282260000e-2 2.143134403540000e-2
2.241778013460000e-2 2.344961979710000e-2 2.452895207920000e-2 2.565796358590000e-2
2.683894037700000e-2 2.807427417690000e-2 2.936646714880000e-2 3.071813618800000e-2
3.213201864920000e-2 3.361097807170000e-2 3.515800942370000e-2 3.677624577920000e-2
3.846896499190000e-2 4.023959397320000e-2 4.209171918580000e-2 4.402909187060001e-2
4.605563422370000e-2 4.817545226660000e-2 5.039283387759999e-2 5.271227408620001e-2
5.513847165140000e-2 5.767633041480000e-2 6.033099748130000e-2 6.310784875730000e-2
6.601250318010000e-2 6.905084171310000e-2 7.222901675280000e-2 7.555346629470000e-2
7.903091850580001e-2 8.266841061719999e-2 8.647331256710000e-2 9.045332668090001e-2
9.461650644310000e-2 9.897127999919999e-2 1.035264592460000e-1 1.082912727700000e-1
1.132753556560000e-1 1.184887966030000e-1 1.239421418930000e-1 1.296464374970000e-1
1.356132136550000e-1 1.418545458250000e-1 1.483830580590000e-1 1.552119548740000e-1
1.623550480990000e-1 1.698267786800000e-1 1.776422573060000e-1 1.858172759860000e-1
1.943683670490000e-1 2.033127947370000e-1 2.126686419070000e-1 2.224547957130000e-1
2.326910186690000e-1 2.433979758810000e-1 2.545972709500000e-1 2.663114951690000e-1
2.785642707580000e-1 2.913802927390000e-1 3.047853835990000e-1 3.188065366030000e-1
3.334719666380000e-1 3.488111778230000e-1 3.648549902240000e-1 3.816356399430000e-1
3.991867944900000e-1 4.175436548740000e-1 4.367429814689999e-1 4.568232005300000e-1
4.778244378340000e-1 4.997886122100000e-1 5.227595115670000e-1 5.467828550479999e-1
5.719063447929999e-1 5.981798105650000e-1 6.256551977290000e-1 6.543867776290000e-1
6.844310542950000e-1 7.158470786890000e-1 7.486963110600000e-1 7.830427416090000e-1
8.189531220700001e-1 8.564967817210000e-1 8.957460661799999e-1 9.367759703830000e-1
9.796645699770000e-1 1.024492774690000e0 1.071344577390000e0 1.120307030950000e0
1.171470036680000e0 1.224926682150000e0 1.280772888440000e0 1.339107336490000e0
1.400031507000000e0 1.463649387230000e0 1.530067005480000e0 1.599392408750000e0
1.671734974900000e0 1.747204898420000e0 1.825912471950000e0 1.907967151330000e0
1.993476428410000e0 2.082544433620000e0 2.175270315290000e0 2.271746069280000e0
2.372054023070000e0 2.476263887130000e0 2.584429052440000e0 2.696582113220000e0
2.812729660210000e0 2.932845982300000e0 3.056865696450000e0 3.184674726870000e0
3.316100116380000e0 3.450898057370000e0 3.588739644020000e0 3.729194882360000e0
3.871714738690000e0 4.015609363970000e0 4.160027754950000e0 4.303930474890000e0
4.446064766580000e0 4.584938085650000e0 4.718791270540000e0 4.845574965100000e0
4.962931871440000e0 5.068184624570000e0 5.158339224330000e0 5.230103366470000e0
5.279929988770000e0 5.304089597170000e0 5.298778119970000e0 5.260267368060000e0
5.185099241850000e0 5.070325010990000e0 4.913783420410000e0 4.714404176310000e0
4.472515356330000e0 4.190122516580000e0 3.871119163150000e0 3.521383544930000e0
3.148715234550000e0 2.762576899300000e0 2.373624654470000e0 1.993040739120000e0
1.631719753860000e0 1.299395944630000e0 1.003827595200000e0 7.501635831340000e-1
5.406006758850000e-1 3.743964335410000e-1 2.482388256140000e-1 1.569049142020000e-1
9.408436745980000e-2 5.321674251360000e-2 2.820147688800000e-2 1.388316416360000e-2
6.277438915569999e-3 2.564612209120000e-3 9.213173457490001e-4 2.754334127990000e-4
5.830293214280000e-5 1.163261577730000e-6 -6.940002320330001e-6 -4.557952637250001e-6
-1.997404774290000e-6 -6.971405274849998e-7 -2.031302792280000e-7 -5.009835114130000e-8
-1.046004752560000e-8 -1.835531719670000e-9 -2.674844300640001e-10 -3.187602781120000e-11
-3.051021368749999e-12 -2.298886768280000e-13 -1.338619225240000e-14 -6.113288542050000e-16
0.000000000000000e0 0.000000000000000e0 0.000000000000000e0 0.000000000000000e0
0.000000000000000e0 0.000000000000000e0 0.000000000000000e0 0.000000000000000e0
0.000000000000000e0 0.000000000000000e0 0.000000000000000e0 0.000000000000000e0
0.000000000000000e0 0.000000000000000e0 0.000000000000000e0 0.000000000000000e0
0.000000000000000e0 0.000000000000000e0 0.000000000000000e0 0.000000000000000e0
0.000000000000000e0 0.000000000000000e0 0.000000000000000e0 0.000000000000000e0
0.000000000000000e0 0.000000000000000e0 0.000000000000000e0 0.000000000000000e0
0.000000000000000e0 0.000000000000000e0 0.000000000000000e0 0.000000000000000e0
0.000000000000000e0 0.000000000000000e0 0.000000000000000e0 0.000000000000000e0
0.000000000000000e0 0.000000000000000e0 0.000000000000000e0 0.000000000000000e0
0.000000000000000e0 0.000000000000000e0 0.000000000000000e0 0.000000000000000e0
0.000000000000000e0 0.000000000000000e0 0.000000000000000e0 0.000000000000000e0
0.000000000000000e0 0.000000000000000e0 0.000000000000000e0 0.000000000000000e0
0.000000000000000e0 0.000000000000000e0 0.000000000000000e0 0.000000000000000e0
0.000000000000000e0 0.000000000000000e0 0.000000000000000e0 0.000000000000000e0
0.000000000000000e0 0.000000000000000e0 0.000000000000000e0 0.000000000000000e0
0.000000000000000e0 0.000000000000000e0 0.000000000000000e0 0.000000000000000e0
0.000000000000000e0 0.000000000000000e0 0.000000000000000e0 0.000000000000000e0
0.000000000000000e0 0.000000000000000e0 0.000000000000000e0 0.000000000000000e0
0.000000000000000e0
</PP_BETA.1>
<PP_DIJ>
1.169576066280000e0
</PP_DIJ>
<PP_AUGMENTATION q_with_l="false" nqf="0" nqlc="5">
<PP_Q>
0.000000000000000e0
</PP_Q>
<PP_QIJ.1.1 first_index="1" second_index="1" composite_index="1">
0.000000000000000e0 0.000000000000000e0 0.000000000000000e0 0.000000000000000e0
0.000000000000000e0 0.000000000000000e0 0.000000000000000e0 0.000000000000000e0
0.000000000000000e0 0.000000000000000e0 0.000000000000000e0 0.000000000000000e0
0.000000000000000e0 0.000000000000000e0 0.000000000000000e0 0.000000000000000e0
0.000000000000000e0 0.000000000000000e0 0.000000000000000e0 0.000000000000000e0
0.000000000000000e0 0.000000000000000e0 0.000000000000000e0 0.000000000000000e0
0.000000000000000e0 0.000000000000000e0 0.000000000000000e0 0.000000000000000e0
0.000000000000000e0 0.000000000000000e0 0.000000000000000e0 0.000000000000000e0
0.000000000000000e0 0.000000000000000e0 0.000000000000000e0 0.000000000000000e0
0.000000000000000e0 0.000000000000000e0 0.000000000000000e0 0.000000000000000e0
0.000000000000000e0 0.000000000000000e0 0.000000000000000e0 0.000000000000000e0
0.000000000000000e0 0.000000000000000e0 0.000000000000000e0 0.000000000000000e0
0.000000000000000e0 0.000000000000000e0 0.000000000000000e0 0.000000000000000e0
0.000000000000000e0 0.000000000000000e0 0.000000000000000e0 0.000000000000000e0
0.000000000000000e0 0.000000000000000e0 0.000000000000000e0 0.000000000000000e0
0.000000000000000e0 0.000000000000000e0 0.000000000000000e0 0.000000000000000e0
0.000000000000000e0 0.000000000000000e0 0.000000000000000e0 0.000000000000000e0
0.000000000000000e0 0.000000000000000e0 0.000000000000000e0 0.000000000000000e0
0.000000000000000e0 0.000000000000000e0 0.000000000000000e0 0.000000000000000e0
0.000000000000000e0 0.000000000000000e0 0.000000000000000e0 0.000000000000000e0
0.000000000000000e0 0.000000000000000e0 0.000000000000000e0 0.000000000000000e0
0.000000000000000e0 0.000000000000000e0 0.000000000000000e0 0.000000000000000e0
0.000000000000000e0 0.000000000000000e0 0.000000000000000e0 0.000000000000000e0
0.000000000000000e0 0.000000000000000e0 0.000000000000000e0 0.000000000000000e0
0.000000000000000e0 0.000000000000000e0 0.000000000000000e0 0.000000000000000e0
0.000000000000000e0 0.000000000000000e0 0.000000000000000e0 0.000000000000000e0
0.000000000000000e0 0.000000000000000e0 0.000000000000000e0 0.000000000000000e0
0.000000000000000e0 0.000000000000000e0 0.000000000000000e0 0.000000000000000e0
0.000000000000000e0 0.000000000000000e0 0.000000000000000e0 0.000000000000000e0
0.000000000000000e0 0.000000000000000e0 0.000000000000000e0 0.000000000000000e0
0.000000000000000e0 0.000000000000000e0 0.000000000000000e0 0.000000000000000e0
0.000000000000000e0 0.000000000000000e0 0.000000000000000e0 0.000000000000000e0
0.000000000000000e0 0.000000000000000e0 0.000000000000000e0 0.000000000000000e0
0.000000000000000e0 0.000000000000000e0 0.000000000000000e0 0.000000000000000e0
0.000000000000000e0 0.000000000000000e0 0.000000000000000e0 0.000000000000000e0
0.000000000000000e0 0.000000000000000e0 0.000000000000000e0 0.000000000000000e0
0.000000000000000e0 0.000000000000000e0 0.000000000000000e0 0.000000000000000e0
0.000000000000000e0 0.000000000000000e0 0.000000000000000e0 0.000000000000000e0
0.000000000000000e0 0.000000000000000e0 0.000000000000000e0 0.000000000000000e0
0.000000000000000e0 0.000000000000000e0 0.000000000000000e0 0.000000000000000e0
0.000000000000000e0 0.000000000000000e0 0.000000000000000e0 0.000000000000000e0
0.000000000000000e0 0.000000000000000e0 0.000000000000000e0 0.000000000000000e0
0.000000000000000e0 0.000000000000000e0 0.000000000000000e0 0.000000000000000e0
0.000000000000000e0 0.000000000000000e0 0.000000000000000e0 0.000000000000000e0
0.000000000000000e0 0.000000000000000e0 0.000000000000000e0 0.000000000000000e0
0.000000000000000e0 0.000000000000000e0 0.000000000000000e0 0.000000000000000e0
0.000000000000000e0 0.000000000000000e0 0.000000000000000e0 0.000000000000000e0
0.000000000000000e0 0.000000000000000e0 0.000000000000000e0 0.000000000000000e0
0.000000000000000e0 0.000000000000000e0 0.000000000000000e0 0.000000000000000e0
0.000000000000000e0 0.000000000000000e0 0.000000000000000e0 0.000000000000000e0
0.000000000000000e0 0.000000000000000e0 0.000000000000000e0 0.000000000000000e0
0.000000000000000e0 0.000000000000000e0 0.000000000000000e0 0.000000000000000e0
0.000000000000000e0 0.000000000000000e0 0.000000000000000e0 0.000000000000000e0
0.000000000000000e0 0.000000000000000e0 0.000000000000000e0 0.000000000000000e0
0.000000000000000e0 0.000000000000000e0 0.000000000000000e0 0.000000000000000e0
0.000000000000000e0 0.000000000000000e0 0.000000000000000e0 0.000000000000000e0
0.000000000000000e0 0.000000000000000e0 0.000000000000000e0 0.000000000000000e0
0.000000000000000e0 0.000000000000000e0 0.000000000000000e0 0.000000000000000e0
0.000000000000000e0 0.000000000000000e0 0.000000000000000e0 0.000000000000000e0
0.000000000000000e0 0.000000000000000e0 0.000000000000000e0 0.000000000000000e0
0.000000000000000e0 0.000000000000000e0 0.000000000000000e0 0.000000000000000e0
0.000000000000000e0 0.000000000000000e0 0.000000000000000e0 0.000000000000000e0
0.000000000000000e0 0.000000000000000e0 0.000000000000000e0 0.000000000000000e0
0.000000000000000e0 0.000000000000000e0 0.000000000000000e0 0.000000000000000e0
0.000000000000000e0 0.000000000000000e0 0.000000000000000e0 0.000000000000000e0
0.000000000000000e0 0.000000000000000e0 0.000000000000000e0 0.000000000000000e0
0.000000000000000e0 0.000000000000000e0 0.000000000000000e0 0.000000000000000e0
0.000000000000000e0
</PP_QIJ.1.1>
</PP_AUGMENTATION>
</PP_NONLOCAL>
<PP_PSWFC>
<PP_CHI.1 index="1" label="2S" l="0" occupation="2.000000000000e0" n="0" pseudo_energy="0.000000000000e0" cutoff_radius="1.200000000000e0" ultrasoft_cutoff_radius="1.600000000000e0">
1.009943877830000e-2 1.025336050860000e-2 1.040960595030000e-2 1.056821016370000e-2
1.072920873900000e-2 1.089263780520000e-2 1.105853403810000e-2 1.122693466820000e-2