<UPF version="2.0.1">
<PP_INFO>
Generated by new atomic code, or converted to UPF format
Author:
Generation date:
Pseudopotential type: US
Element: Na
Functional: SLA  PZ   NOGX NOGC
Suggested minimum cutoff for wavefunctions:   0. Ry
Suggested minimum cutoff for charge density:   0. Ry
The Pseudo was generated with a Non-Relativistic Calculation
L component and cutoff radius for Local Potential:  0   0.0000
Valence configuration:
nl pn  l   occ       Rcut    Rcut US       E pseu
2S  0  0  2.00      0.900      1.800     0.000000
2P  0  1  6.00      0.900      1.800     0.000000
3S  0  0  1.00      0.900      1.800     0.000000
Generation configuration: not available.
</PP_INFO>
<!--
END OF HUMAN READABLE SECTION
-->
<PP_HEADER generated="Generated by new atomic code, or converted to UPF format" author="" date="" comment="" element="Na" pseudo_type="US" relativistic="no" is_ultrasoft="true" is_paw="false" is_coulomb="false" has_so="false" has_wfc="false" has_gipaw="false" paw_as_gipaw="false" core_correction="false" functional="SLA  PZ   NOGX NOGC" z_valence="9.000000000000e0" total_psenergy="-9.568216852479e1" wfc_cutoff="0.000000000000e0" rho_cutoff="0.000000000000e0" l_max="2" l_max_rho="0" l_local="0" mesh_size="819" number_of_wfc="3" number_of_proj="6"/>
<PP_MESH mesh="819" rmax="1.563511948290e2" zmesh="1.100000000000e1">
<PP_R>
0.000000000000000e0 5.201864669329998e-9 1.053541516970000e-8 1.600398514380000e-8
2.161099262600000e-8 2.735994217830001e-8 3.325442708140000e-8 3.929813158029999e-8
4.549483318689999e-8 5.184840504160001e-8 5.836281833360001e-8 6.504214478320001e-8
7.189055918689999e-8 7.891234202660000e-8 8.611188214520002e-8 9.349367948959999e-8
1.010623479230000e-7 1.088226181110000e-7 1.167793404740000e-7 1.249374882220000e-7
1.333021604630000e-7 1.418785853910000e-7 1.506721235490000e-7 1.596882711860000e-7
1.689326636870000e-7 1.784110790980000e-7 1.881294417370000e-7 1.980938258990000e-7
2.083104596460000e-7 2.187857287070000e-7 2.295261804680000e-7 2.405385280590000e-7
2.518296545570000e-7 2.634066172830001e-7 2.752766522160000e-7 2.874471785140000e-7
2.999258031520000e-7 3.127203256760000e-7 3.258387430810000e-7 3.392892548020000e-7
3.530802678500000e-7 3.672204020540000e-7 3.817184954610000e-7 3.965836098490000e-7
4.118250364000000e-7 4.274523015010000e-7 4.434751727009999e-7 4.599036648170001e-7
4.767480461910000e-7 4.940188451090000e-7 5.117268563840000e-7 5.298831480980000e-7
5.484990685250000e-7 5.675862532220001e-7 5.871566322989999e-7 6.072224378820001e-7
6.277962117520003e-7 6.488908131860002e-7 6.705194269980000e-7 6.926955717759999e-7
7.154331083319998e-7 7.387462483660000e-7 7.626495633490000e-7 7.871579936330000e-7
8.122868577830001e-7 8.380518621569999e-7 8.644691107229999e-7 8.915551151200003e-7
9.193268049820000e-7 9.478015385210002e-7 9.769971133719999e-7 1.006931777720000e-6
1.037624241700000e-6 1.069093689110000e-6 1.101359789370000e-6 1.134442709850000e-6
1.168363128440000e-6 1.203142246530000e-6 1.238801802170000e-6 1.275364083770000e-6
1.312851943930000e-6 1.351288813790000e-6 1.390698717650000e-6 1.431106287970000e-6
1.472536780800000e-6 1.515016091550000e-6 1.558570771180000e-6 1.603228042760000e-6
1.649015818560001e-6 1.695962717430000e-6 1.744098082690000e-6 1.793452000530000e-6
1.844055318750000e-6 1.895939666070000e-6 1.949137471890000e-6 2.003681986580000e-6
2.059607302230000e-6 2.116948373990000e-6 2.175741041890000e-6 2.236022053259999e-6
2.297829085710000e-6 2.361200770620000e-6 2.426176717380000e-6 2.492797538070000e-6
2.561104872860001e-6 2.631141416060000e-6 2.702950942790000e-6 2.776578336350000e-6
2.852069616250000e-6 2.929471967000000e-6 3.008833767580001e-6 3.090204621720000e-6
3.173635388829999e-6 3.259178215870000e-6 3.346886569880001e-6 3.436815271450000e-6
3.529020528939999e-6 3.623559973630001e-6 3.720492695760000e-6 3.819879281430000e-6
3.921781850499999e-6 4.026264095389999e-6 4.133391320890000e-6 4.243230485030000e-6
4.355850240840001e-6 4.471320979339999e-6 4.589714873500000e-6 4.711105923369999e-6
4.835570002290000e-6 4.963184904369999e-6 5.094030393079999e-6 5.228188251110000e-6
5.365742331479999e-6 5.506778609970000e-6 5.651385238850001e-6 5.799652601970000e-6
5.951673371260000e-6 6.107542564650000e-6 6.267357605449999e-6 6.431218383270000e-6
6.599227316430001e-6 6.771489415980001e-6 6.948112351350000e-6 7.129206517609999e-6
7.314885104509999e-6 7.505264167229999e-6 7.700462698860000e-6 7.900602704840001e-6
8.105809279200001e-6 8.316210682720000e-6 8.531938423130001e-6 8.753127337290001e-6
8.979915675459999e-6 9.212445187759998e-6 9.450861212680001e-6 9.695312768010000e-6
9.945952643920002e-6 1.020293749850000e-5 1.046642795560000e-5 1.073658870550000e-5
1.101358860720000e-5 1.129760079490000e-5 1.158880278530000e-5 1.188737658930000e-5
1.219350882500000e-5 1.250739083520000e-5 1.282921880630000e-5 1.315919389130000e-5
1.349752233530000e-5 1.384441560470000e-5 1.420009051900000e-5 1.456476938660000e-5
1.493868014370000e-5 1.532205649670000e-5 1.571513806820000e-5 1.611817054720000e-5
1.653140584190000e-5 1.695510223790000e-5 1.738952455920000e-5 1.783494433390000e-5
1.829163996400000e-5 1.875989689890000e-5 1.924000781460000e-5 1.973227279600000e-5
2.023699952470000e-5 2.075450347140000e-5 2.128510809290000e-5 2.182914503430000e-5
2.238695433650000e-5 2.295888464830000e-5 2.354529344500000e-5 2.414654725100000e-5
2.476302186960000e-5 2.539510261740000e-5 2.604318456560000e-5 2.670767278640001e-5
2.738898260650000e-5 2.808753986690000e-5 2.880378118860000e-5 2.953815424560000e-5
3.029111804500000e-5 3.106314321380000e-5 3.185471229280000e-5 3.266632003850001e-5
3.349847373200000e-5 3.435169349660000e-5 3.522651262230000e-5 3.612347789969999e-5
3.704314996119999e-5 3.798610363170001e-5 3.895292828810001e-5 3.994422822710000e-5
4.096062304360000e-5 4.200274801740001e-5 4.307125451049999e-5 4.416681037420000e-5
4.529010036670000e-5 4.644182658070001e-5 4.762270888260000e-5 4.883348536240001e-5
5.007491279460000e-5 5.134776711190000e-5 5.265284388970000e-5 5.399095884340000e-5
5.536294833840000e-5 5.676966991290000e-5 5.821200281349999e-5 5.969084854540000e-5
6.120713143520000e-5 6.276179920909999e-5 6.435582358510000e-5 6.599020088020000e-5
6.766595263359999e-5 6.938412624460000e-5 7.114579562759999e-5 7.295206188340000e-5
7.480405398720000e-5 7.670292949420001e-5 7.864987526360001e-5 8.064610819980000e-5
8.269287601340000e-5 8.479145800090000e-5 8.694316584430000e-5 8.914934443109999e-5
9.141137269469999e-5 9.373066447639999e-5 9.610866940910000e-5 9.854687382340000e-5
1.010468016760000e-4 1.036100155040000e-4 1.062381173990000e-4 1.089327500090000e-4
1.116955975700000e-4 1.145283869490000e-4 1.174328887330000e-4 1.204109183290000e-4
1.234643371040000e-4 1.265950535430000e-4 1.298050244460000e-4 1.330962561490000e-4
1.364708057790000e-4 1.399307825400000e-4 1.434783490300000e-4 1.471157225930000e-4
1.508451767060000e-4 1.546690424000000e-4 1.585897097140000e-4 1.626096291940000e-4
1.667313134200000e-4 1.709573385790000e-4 1.752903460750000e-4 1.797330441770000e-4
1.842882097170000e-4 1.889586898220000e-4 1.937474036940000e-4 1.986573444340000e-4
2.036915809160000e-4 2.088532597020000e-4 2.141456070080000e-4 2.195719307230000e-4
2.251356224780000e-4 2.308401597600000e-4 2.366891080910000e-4 2.426861232540000e-4
2.488349535780000e-4 2.551394422840000e-4 2.616035298800001e-4 2.682312566330000e-4
2.750267650880000e-4 2.819943026580000e-4 2.891382242820000e-4 2.964629951430000e-4
3.039731934600000e-4 3.116735133540000e-4 3.195687677730001e-4 3.276638915100000e-4
3.359639442800000e-4 3.444741138860000e-4 3.531997194610001e-4 3.621462147930000e-4
3.713191917320000e-4 3.807243836890000e-4 3.903676692130000e-4 4.002550756730000e-4
4.103927830190001e-4 4.207871276480001e-4 4.314446063639999e-4 4.423718804380000e-4
4.535757797730000e-4 4.650633071700000e-4 4.768416427070000e-4 4.889181482280000e-4
5.013003719410001e-4 5.139960531409999e-4 5.270131270400000e-4 5.403597297329999e-4
5.540442032830000e-4 5.680751009289999e-4 5.824611924410000e-4 5.972114695929999e-4
6.123351517890000e-4 6.278416918230000e-4 6.437407817859999e-4 6.600423591280000e-4
6.767566128649999e-4 6.938939899500001e-4 7.114652018020000e-4 7.294812309990001e-4
7.479533381470000e-4 7.668930689130001e-4 7.863122612469999e-4 8.062230527750000e-4
8.266378883900000e-4 8.475695280289999e-4 8.690310546490000e-4 8.910358824010000e-4
9.135977650210002e-4 9.367308044180000e-4 9.604494594949999e-4 9.847685551840000e-4
1.009703291710000e-3 1.035269254100000e-3 1.061482421910000e-3 1.088359179220000e-3
1.115916324880000e-3 1.144171083000000e-3 1.173141113730000e-3 1.202844524280000e-3
1.233299880250000e-3 1.264526217230000e-3 1.296543052690000e-3 1.329370398200000e-3
1.363028771920000e-3 1.397539211420000e-3 1.432923286860000e-3 1.469203114430000e-3
1.506401370210000e-3 1.544541304320000e-3 1.583646755460000e-3 1.623742165810000e-3
1.664852596300000e-3 1.707003742300000e-3 1.750221949630000e-3 1.794534231100000e-3
1.839968283310000e-3 1.886552504030000e-3 1.934316009910000e-3 1.983288654690000e-3
2.033501047890000e-3 2.084984573870000e-3 2.137771411510000e-3 2.191894554310000e-3
2.247387830990000e-3 2.304285926670000e-3 2.362624404490000e-3 2.422439727900000e-3
2.483769283440000e-3 2.546651404070000e-3 2.611125393170000e-3 2.677231549060000e-3
2.745011190260000e-3 2.814506681250000e-3 2.885761458970000e-3 2.958820059970000e-3
3.033728148270000e-3 3.110532543840000e-3 3.189281251950000e-3 3.270023493090001e-3
3.352809733800000e-3 3.437691718170000e-3 3.524722500210000e-3 3.613956476980000e-3
3.705449422630000e-3 3.799258523230000e-3 3.895442412510000e-3 3.994061208550001e-3
4.095176551290000e-3 4.198851641120000e-3 4.305151278339999e-3 4.414141903690000e-3
4.525891639859999e-3 4.640470334070001e-3 4.757949601730000e-3 4.878402871210000e-3
5.001905429730000e-3 5.128534470400000e-3 5.258369140490000e-3 5.391490590909999e-3
5.527982026889999e-3 5.667928760020001e-3 5.811418261569999e-3 5.958540217150000e-3
6.109386582760000e-3 6.264051642300000e-3 6.422632066460000e-3 6.585226973170000e-3
6.751937989540000e-3 6.922869315379999e-3 7.098127788340001e-3 7.277822950660000e-3
7.462067117679999e-3 7.650975447990000e-3 7.844666015450001e-3 8.043259882970000e-3
8.246881178179999e-3 8.455657171020000e-3 8.669718353290000e-3 8.889198520179999e-3
9.114234853950000e-3 9.344968009630000e-3 9.581542202950001e-3 9.824105300490000e-3
1.007280891210000e-2 1.032780848560000e-2 1.058926340400000e-2 1.085733708520000e-2
1.113219708400000e-2 1.141401519670000e-2 1.170296756890000e-2 1.199923480530000e-2
1.230300208250000e-2 1.261445926490000e-2 1.293380102340000e-2 1.326122695700000e-2
1.359694171760000e-2 1.394115513780000e-2 1.429408236220000e-2 1.465594398190000e-2
1.502696617200000e-2 1.540738083360000e-2 1.579742573830000e-2 1.619734467670000e-2
1.660738761120000e-2 1.702781083210000e-2 1.745887711740000e-2 1.790085589770000e-2
1.835402342410000e-2 1.881866294110000e-2 1.929506486340000e-2 1.978352695780000e-2
2.028435452900000e-2 2.079786061050000e-2 2.132436616040000e-2 2.186420026170000e-2
2.241770032840000e-2 2.298521231590000e-2 2.356709093790000e-2 2.416369988720000e-2
2.477541206410000e-2 2.540260980840000e-2 2.604568513920000e-2 2.670503999950000e-2
2.738108650750000e-2 2.807424721440000e-2 2.878495536810000e-2 2.951365518440000e-2
3.026080212440000e-2 3.102686317920000e-2 3.181231716200000e-2 3.261765500700000e-2
3.344338007650000e-2 3.429000847580000e-2 3.515806937500000e-2 3.604810534050000e-2
3.696067267370000e-2 3.789634175900000e-2 3.885569741990000e-2 3.983933928500000e-2
4.084788216250001e-2 4.188195642450000e-2 4.294220840110000e-2 4.402930078420000e-2
4.514391304200000e-2 4.628674184350000e-2 4.745850149380000e-2 4.865992438090000e-2
4.989176143310000e-2 5.115478258890001e-2 5.244977727740000e-2 5.377755491250000e-2
5.513894539850000e-2 5.653479964870000e-2 5.796599011750000e-2 5.943341134550000e-2
6.093798051870001e-2 6.248063804200000e-2 6.406234812630000e-2 6.568409939210000e-2
6.734690548660000e-2 6.905180571780000e-2 7.079986570379999e-2 7.259217803909999e-2
7.442986297709999e-2 7.631406913090000e-2 7.824597419050000e-2 8.022678565960000e-2
8.225774160969999e-2 8.434011145450000e-2 8.647519674280002e-2 8.866433197259999e-2
9.090888542460000e-2 9.321026001769999e-2 9.556989418610000e-2 9.798926277769999e-2
1.004698779770000e-1 1.030132902490000e-1 1.056210893090000e-1 1.082949051170000e-1
1.110364088940000e-1 1.138473141690000e-1 1.167293778510000e-1 1.196844013220000e-1
1.227142315680000e-1 1.258207623320000e-1 1.290059352970000e-1 1.322717412990000e-1
1.356202215740000e-1 1.390534690300000e-1 1.425736295600000e-1 1.461829033780000e-1
1.498835463970000e-1 1.536778716410000e-1 1.575682506850000e-1 1.615571151440000e-1
1.656469581870000e-1 1.698403361000000e-1 1.741398698800000e-1 1.785482468760000e-1
1.830682224670000e-1 1.877026217850000e-1 1.924543414800000e-1 1.973263515320000e-1
2.023216971060000e-1 2.074435004550000e-1 2.126949628720000e-1 2.180793666940000e-1
2.236000773480000e-1 2.292605454570000e-1 2.350643089990000e-1 2.410149955140000e-1
2.471163243750000e-1 2.533721091120000e-1 2.597862597940000e-1 2.663627854730000e-1
2.731057966920000e-1 2.800195080540000e-1 2.871082408510000e-1 2.943764257740000e-1
3.018286056730000e-1 3.094694384060000e-1 3.173036997390000e-1 3.253362863430000e-1
3.335722188450000e-1 3.420166449700000e-1 3.506748427610000e-1 3.595522238720000e-1
3.686543369560000e-1 3.779868711300000e-1 3.875556595310000e-1 3.973666829640000e-1
4.074260736370000e-1 4.177401189980000e-1 4.283152656600000e-1 4.391581234350000e-1
4.502754694610000e-1 4.616742524410000e-1 4.733615969860000e-1 4.853448080680000e-1
4.976313755820000e-1 5.102289790330000e-1 5.231454923339999e-1 5.363889887260001e-1
5.499677458260001e-1 5.638902507980000e-1 5.781652056610000e-1 5.928015327270000e-1
6.078083801770000e-1 6.231951277789999e-1 6.389713927510000e-1 6.551470357720000e-1
6.717321671460001e-1 6.887371531189999e-1 7.061726223619999e-1 7.240494726100000e-1
7.423788774759999e-1 7.611722934360000e-1 7.804414669860000e-1 8.001984419870000e-1
8.204555671910001e-1 8.412255039620000e-1 8.625212341839999e-1 8.843560683850001e-1
9.067436540440001e-1 9.296979841330000e-1 9.532334058540000e-1 9.773646296130000e-1
1.002106738210000e0 1.027475196270000e0 1.053485859900000e0 1.080154986620000e0
1.107499245490000e0 1.135535727570000e0 1.164281956580000e0 1.193755899830000e0
1.223975979520000e0 1.254961084160000e0 1.286730580460000e0 1.319304325390000e0
1.352702678590000e0 1.386946515140000e0 1.422057238530000e0 1.458056794120000e0
1.494967682800000e0 1.532812975070000e0 1.571616325480000e0 1.611401987380000e0
1.652194828100000e0 1.694020344510000e0 1.736904678900000e0 1.780874635390000e0
1.825957696620000e0 1.872182040990000e0 1.919576560200000e0 1.968170877380000e0
2.017995365560000e0 2.069081166650000e0 2.121460210960000e0 2.175165237100000e0
2.230229812430000e0 2.286688354140000e0 2.344576150620000e0 2.403929383660000e0
2.464785150940000e0 2.527181489300000e0 2.591157398490000e0 2.656752865540000e0
2.724008889730000e0 2.792967508290000e0 2.863671822580000e0 2.936166025120000e0
3.010495427120000e0 3.086706486900000e0 3.164846838840000e0 3.244965323210000e0
3.327112016670000e0 3.411338263570000e0 3.497696708060000e0 3.586241326990000e0
3.677027463610000e0 3.770111862230000e0 3.865552703610000e0 3.963409641400000e0
4.063743839360000e0 4.166618009640000e0 4.272096451930000e0 4.380245093710000e0
4.491131531380000e0 4.604825072590000e0 4.721396779500000e0 4.840919513220000e0
4.963467979350000e0 5.089118774660000e0 5.217950435010000e0 5.350043484370000e0
5.485480485180000e0 5.624346090000000e0 5.766727094340000e0 5.912712490970000e0
6.062393525510000e0 6.215863753480000e0 6.373219098760000e0 6.534557913580000e0
6.699981039930000e0 6.869591872670000e0 7.043496424080000e0 7.221803390180000e0
7.404624218600000e0 7.592073178340000e0 7.784267431080000e0 7.981327104490000e0
8.183375367289999e0 8.390538506210000e0 8.602946004960000e0 8.820730625150000e0
9.044028489240000e0 9.272979165670000e0 9.507725756070000e0 9.748414984700000e0
9.995197290160000e0 1.024822691940000e1 1.050766202430000e1 1.077366476000000e1
1.104640138710000e1 1.132604237480000e1 1.161276250780000e1 1.190674099550000e1
1.220816158410000e1 1.251721267110000e1 1.283408742370000e1 1.315898389890000e1
1.349210516750000e1 1.383365944110000e1 1.418386020240000e1 1.454292633810000e1
1.491108227630000e1 1.528855812650000e1 1.567558982330000e1 1.607241927420000e1
1.647929451040000e1 1.689646984230000e1 1.732420601800000e1 1.776277038660000e1
1.821243706500000e1 1.867348710950000e1 1.914620869150000e1 1.963089727730000e1
2.012785581310000e1 2.063739491410000e1 2.115983305880000e1 2.169549678820000e1
2.224472090940000e1 2.280784870550000e1 2.338523214960000e1 2.397723212510000e1
2.458421865140000e1 2.520657111480000e1 2.584467850580000e1 2.649893966230000e1
2.716976351880000e1 2.785756936210000e1 2.856278709320000e1 2.928585749620000e1
3.002723251360000e1 3.078737552890000e1 3.156676165620000e1 3.236587803730000e1
3.318522414590000e1 3.402531210000000e1 3.488666698190000e1 3.576982716640000e1
3.667534465750000e1 3.760378543300000e1 3.855572979860000e1 3.953177275050000e1
4.053252434750000e1 4.155861009170000e1 4.261067132020000e1 4.368936560550000e1
4.479536716660000e1 4.592936729060000e1 4.709207476440000e1 4.828421631800000e1
4.950653707870000e1 5.075980103680000e1 5.204479152300000e1 5.336231169830000e1
5.471318505560000e1 5.609825593480000e1 5.751839005020000e1 5.897447503190000e1
6.046742098040000e1 6.199816103550000e1 6.356765195960000e1 6.517687473560000e1
6.682683518010001e1 6.851856457220001e1 7.025312029769999e1 7.203158651050001e1
7.385507480970000e1 7.572472493510000e1 7.764170547870001e1 7.960721461580000e1
8.162248085360000e1 8.368876379920001e1 8.580735494650000e1 8.797957848400001e1
9.020679212220001e1 9.249038794210000e1 9.483179326549999e1 9.723247154670000e1
9.969392328800000e1 1.022176869770000e2 1.048053400480000e2 1.074584998680000e2
1.101788247480000e2 1.129680149810000e2 1.158278139010000e2 1.187600089750000e2
1.217664329210000e2 1.248489648520000e2 1.280095314490000e2 1.312501081720000e2
1.345727204840000e2 1.379794451280000e2 1.414724114160000e2 1.450538025670000e2
1.487258570670000e2 1.524908700690000e2 1.563511948290000e2
</PP_R>
<PP_RAB>
5.137112288590000e-9 5.267158905329998e-9 5.400497667840000e-9 5.537211917190000e-9
5.677387104239999e-9 5.821110843049999e-9 5.968472965629999e-9 6.119565578100000e-9
6.274483118270000e-9 6.433322414630000e-9 6.596182746929999e-9 6.763165908169999e-9
6.934376268259999e-9 7.109920839259999e-9 7.289909342220001e-9 7.474454275830000e-9
7.663670986680000e-9 7.857677741370001e-9 8.056595800430001e-9 8.260549494140001e-9
8.469666300180004e-9 8.684076923370000e-9 8.903915377329998e-9 9.129319068239999e-9
9.360428880759999e-9 9.597389266040000e-9 9.840348332029997e-9 1.008945793610000e-8
1.034487377970000e-8 1.060675550630000e-8 1.087526680030000e-8 1.115057549010000e-8
1.143285365250000e-8 1.172227772070000e-8 1.201902859400000e-8 1.232329175140000e-8
1.263525736740000e-8 1.295512043050000e-8 1.328308086560000e-8 1.361934365870000e-8
1.396411898480000e-8 1.431762234000000e-8 1.468007467510000e-8 1.505170253480000e-8
1.543273819860000e-8 1.582341982610000e-8 1.622399160610000e-8 1.663470390900000e-8
1.705581344340000e-8 1.748758341630000e-8 1.793028369820000e-8 1.838419099100000e-8
1.884958900170000e-8 1.932676861910000e-8 1.981602809609999e-8 2.031767323560000e-8
2.083201758240000e-8 2.135938261820000e-8 2.190009796360000e-8 2.245450158300000e-8
2.302293999690000e-8 2.360576849770000e-8 2.420335137230000e-8 2.481606212940000e-8
2.544428373320001e-8 2.608840884250001e-8 2.674884005670000e-8 2.742599016659999e-8
2.812028241320000e-8 2.883215075160001e-8 2.956204012290000e-8 3.031040673150000e-8
3.107771833110000e-8 3.186445451630000e-8 3.267110702280001e-8 3.349818003470000e-8
3.434619049970000e-8 3.521566845170000e-8 3.610715734290000e-8 3.702121438290000e-8
3.795841088690000e-8 3.891933263340000e-8 3.990458022980001e-8 4.091476948780000e-8
4.195053180860000e-8 4.301251457739999e-8 4.410138156799999e-8 4.521781335769999e-8
4.636250775270000e-8 4.753618022420000e-8 4.873956435590000e-8 4.997341230190000e-8
5.123849525730000e-8 5.253560394020001e-8 5.386554908580000e-8 5.522916195300000e-8
5.662729484430001e-8 5.806082163830000e-8 5.953063833579999e-8 6.103766362020001e-8
6.258283943120000e-8 6.416713155420000e-8 6.579153022320000e-8 6.745705074030001e-8
6.916473411000002e-8 7.091564769000001e-8 7.271088585839999e-8 7.455157069730001e-8
7.643885269479998e-8 7.837391146349999e-8 8.035795647820001e-8 8.239222783150002e-8
8.447799700940001e-8 8.661656768530001e-8 8.880927653569998e-8 9.105749407489999e-8
9.336262551200001e-8 9.572611162940003e-8 9.814942968259999e-8 1.006340943240000e-7
1.031816585510000e-7 1.057937146730000e-7 1.084718953110000e-7 1.112178744140000e-7
1.140333683090000e-7 1.169201367720000e-7 1.198799841260000e-7 1.229147603730000e-7
1.260263623460000e-7 1.292167348980000e-7 1.324878721160000e-7 1.358418185660000e-7
1.392806705760000e-7 1.428065775380000e-7 1.464217432600000e-7 1.501284273380000e-7
1.539289465700000e-7 1.578256764050000e-7 1.618210524250000e-7 1.659175718700000e-7
1.701177951989999e-7 1.744243476880000e-7 1.788399210720000e-7 1.833672752290000e-7
1.880092399010000e-7 1.927687164690000e-7 1.976486797600000e-7 2.026521799099999e-7
2.077823442690001e-7 2.130423793570000e-7 2.184355728669999e-7 2.239652957210000e-7
2.296350041750000e-7 2.354482419830000e-7 2.414086426060001e-7 2.475199314890000e-7
2.537859283870000e-7 2.602105497510000e-7 2.667978111800000e-7 2.735518299250000e-7
2.804768274700000e-7 2.875771321610000e-7 2.948571819220000e-7 3.023215270200001e-7
3.099748329140000e-7 3.178218831680000e-7 3.258675824460000e-7 3.341169595710001e-7
3.425751706719999e-7 3.512475024060000e-7 3.601393752630000e-7 3.692563469530000e-7
3.786041158810000e-7 3.881885247060000e-7 3.980155639950000e-7 4.080913759680000e-7
4.184222583350000e-7 4.290146682350001e-7 4.398752262680000e-7 4.510107206369998e-7
4.624281113880000e-7 4.741345347610000e-7 4.861373076539999e-7 4.984439321880001e-7
5.110621004060000e-7 5.239996990740000e-7 5.372648146110000e-7 5.508657381459999e-7
5.648109706999999e-7 5.791092284970000e-7 5.937694484130001e-7 6.088007935630001e-7
6.242126590280000e-7 6.400146777240002e-7 6.562167264280000e-7 6.728289319470000e-7
6.898616774520000e-7 7.073256089619999e-7 7.252316420030001e-7 7.435909684280000e-7
7.624150634150001e-7 7.817156926350001e-7 8.015049196100000e-7 8.217951132509999e-7
8.425989555890002e-7 8.639294497030001e-7 8.857999278470000e-7 9.082240597809999e-7
9.312158613180001e-7 9.547897030809999e-7 9.789603194899998e-7 1.003742817970000e-6
1.029152688380000e-6 1.055205812720000e-6 1.081918475050000e-6 1.109307371640000e-6
1.137389621460000e-6 1.166182776810000e-6 1.195704834350000e-6 1.225974246350000e-6
1.257009932150000e-6 1.288831290090000e-6 1.321458209530000e-6 1.354911083370000e-6
1.389210820750000e-6 1.424378860110000e-6 1.460437182630000e-6 1.497408325920000e-6
1.535315398170000e-6 1.574182092520000e-6 1.614032701910000e-6 1.654892134290000e-6
1.696785928130000e-6 1.739740268400000e-6 1.783782002980000e-6 1.828938659370000e-6
1.875238461970000e-6 1.922710349640000e-6 1.971383993880000e-6 2.021289817280000e-6
2.072459012620000e-6 2.124923562310000e-6 2.178716258400000e-6 2.233870723070000e-6
2.290421429660000e-6 2.348403724200000e-6 2.407853847520000e-6 2.468808957870000e-6
2.531307154190000e-6 2.595387499890000e-6 2.661090047250000e-6 2.728455862530000e-6
2.797527051530000e-6 2.868346786010001e-6 2.940959330600000e-6 3.015410070520000e-6
3.091745539880000e-6 3.170013450850000e-6 3.250262723430000e-6 3.332543516010000e-6
3.416907256769999e-6 3.503406675790000e-6 3.592095838040000e-6 3.683030177110000e-6
3.776266529939999e-6 3.871863172280000e-6 3.969879855140000e-6 4.070377842140000e-6
4.173419947789999e-6 4.279070576770000e-6 4.387395764150000e-6 4.498463216709999e-6
4.612342355220001e-6 4.729104357839999e-6 4.848822204630000e-6 4.971570723140000e-6
5.097426635200000e-6 5.226468604829999e-6 5.358777287480000e-6 5.494435380370000e-6
5.633527674240000e-6 5.776141106289999e-6 5.922364814560000e-6 6.072290193640000e-6
6.226010951750000e-6 6.383623169380000e-6 6.545225359290001e-6 6.710918528120001e-6
6.880806239489999e-6 7.054994678749999e-6 7.233592719340000e-6 7.416711990850001e-6
7.604466948799999e-6 7.796974946130000e-6 7.994356306619999e-6 8.196734400040000e-6
8.404235719279999e-6 8.616989959429999e-6 8.835130098809998e-6 9.058792482110000e-6
9.288116905599999e-6 9.523246704510003e-6 9.764328842619998e-6 1.001151400410000e-5
1.026495668780000e-5 1.052481530350000e-5 1.079125227140000e-5 1.106443412320000e-5
1.134453160660000e-5 1.163171979150000e-5 1.192617818000000e-5 1.222809081800000e-5
1.253764641080000e-5 1.285503844080000e-5 1.318046528830000e-5 1.351413035560000e-5
1.385624219440000e-5 1.420701463550000e-5 1.456666692330000e-5 1.493542385210000e-5
1.531351590700000e-5 1.570117940790000e-5 1.609865665690000e-5 1.650619609050000e-5
1.692405243390000e-5 1.735248686100000e-5 1.779176715730000e-5 1.824216788730000e-5
1.870397056600000e-5 1.917746383510000e-5 1.966294364350000e-5 2.016071343170000e-5
2.067108432200000e-5 2.119437531300000e-5 2.173091347850000e-5 2.228103417230000e-5
2.284508123780001e-5 2.342340722270000e-5 2.401637359970000e-5 2.462435099189999e-5
2.524771940510000e-5 2.588686846480000e-5 2.654219765999999e-5 2.721411659270000e-5
2.790304523420000e-5 2.860941418730000e-5 2.933366495560001e-5 3.007625021940000e-5
3.083763411860000e-5 3.161829254300000e-5 3.241871342950001e-5 3.323939706730000e-5
3.408085641020000e-5 3.494361739780000e-5 3.582821928380000e-5 3.673521497310000e-5
3.766517136760000e-5 3.861866972040000e-5 3.959630599880000e-5 4.059869125750000e-5
4.162645201990001e-5 4.268023066970001e-5 4.376068585320001e-5 4.486849288979999e-5
4.600434419499999e-5 4.716894971299999e-5 4.836303735990000e-5 4.958735347960000e-5
5.084266330950000e-5 5.212975145890000e-5 5.344942239999999e-5 5.480250097000001e-5
5.618983288710000e-5 5.761228527890000e-5 5.907074722440000e-5 6.056613030989999e-5
6.209936919840001e-5 6.367142221409999e-5 6.528327194150001e-5 6.693592583889998e-5
6.863041686889999e-5 7.036780414360000e-5 7.214917358649998e-5 7.397563861160000e-5
7.584834081890000e-5 7.776845070830001e-5 7.973716841100000e-5 8.175572443960000e-5
8.382538045740000e-5 8.594743006660000e-5 8.812319961760002e-5 9.035404903690001e-5
9.264137267810002e-5 9.498660019299999e-5 9.739119742509999e-5 9.985666732589999e-5
1.023845508940000e-4 1.049764281400000e-4 1.076339190710000e-4 1.103586847050000e-4
1.131524281090000e-4 1.160168954640000e-4 1.189538771560000e-4 1.219652088930000e-4
1.250527728550000e-4 1.282184988720000e-4 1.314643656250000e-4 1.347924018850000e-4
1.382046877850000e-4 1.417033561130000e-4 1.452905936520000e-4 1.489686425410000e-4
1.527398016810000e-4 1.566064281700000e-4 1.605709387740000e-4 1.646358114410000e-4
1.688035868510000e-4 1.730768699970000e-4 1.774583318210000e-4 1.819507108790000e-4
1.865568150540000e-4 1.912795233120000e-4 1.961217874990000e-4 2.010866341870000e-4
2.061771665670000e-4 2.113965663880000e-4 2.167480959440000e-4 2.222351001170000e-4
2.278610084610000e-4 2.336293373530000e-4 2.395436921860000e-4 2.456077696250000e-4
2.518253599139999e-4 2.582003492520000e-4 2.647367222120000e-4 2.714385642430001e-4
2.783100642110000e-4 2.853555170300001e-4 2.925793263360000e-4 2.999860072450000e-4
3.075801891740000e-4 3.153666187340000e-4 3.233501626970000e-4 3.315358110370001e-4
3.399286800510001e-4 3.485340155569999e-4 3.573571961669999e-4 3.664037366590000e-4
3.756792914130000e-4 3.851896579530001e-4 3.949407805690000e-4 4.049387540290001e-4
4.151898273930000e-4 4.257004079140001e-4 4.364770650470001e-4 4.475265345550000e-4
4.588557227150000e-4 4.704717106390000e-4 4.823817586970000e-4 4.945933110570000e-4
5.071140003369999e-4 5.199516523760000e-4 5.331142911220001e-4 5.466101436550000e-4
5.604476453220000e-4 5.746354450110001e-4 5.891824105590000e-4 6.040976342930000e-4
6.193904387140000e-4 6.350703823210001e-4 6.511472655910000e-4 6.676311370990000e-4
6.845322998000000e-4 7.018613174730000e-4 7.196290213160000e-4 7.378465167239999e-4
7.565251902229999e-4 7.756767165930000e-4 7.953130661619999e-4 8.154465122860000e-4
8.360896390259999e-4 8.572553490070000e-4 8.789568714880001e-4 9.012077706249999e-4
9.240219539560000e-4 9.474136810879997e-4 9.713975726110000e-4 9.959886192390000e-4
1.021202191180000e-3 1.047054047720000e-3 1.073560347140000e-3 1.100737656720000e-3
1.128602963160000e-3 1.157173683200000e-3 1.186467674460000e-3 1.216503246630000e-3
1.247299172940000e-3 1.278874701830000e-3 1.311249569050000e-3 1.344444009920000e-3
1.378478772070000e-3 1.413375128330000e-3 1.449154890050000e-3 1.485840420750000e-3
1.523454650080000e-3 1.562021088160000e-3 1.601563840270000e-3 1.642107621910000e-3
1.683677774280000e-3 1.726300280060000e-3 1.770001779710000e-3 1.814809588090000e-3
1.860751711540000e-3 1.907856865380000e-3 1.956154491880000e-3 2.005674778600000e-3
2.056448677350000e-3 2.108507923470000e-3 2.161885055680000e-3 2.216613436430000e-3
2.272727272730000e-3 2.330261637560000e-3 2.389252491760000e-3 2.449736706560000e-3
2.511752086540000e-3 2.575337393330001e-3 2.640532369840000e-3 2.707377765029999e-3
2.775915359450000e-3 2.846187991350000e-3 2.918239583380000e-3 2.992115170150000e-3
3.067860926310000e-3 3.145524195410000e-3 3.225153519530000e-3 3.306798669590000e-3
3.390510676460000e-3 3.476341862870000e-3 3.564345876110000e-3 3.654577721559999e-3
3.747093797050000e-3 3.841951928130000e-3 3.939211404240000e-3 4.038933015710001e-3
4.141179091800000e-3 4.246013539620000e-3 4.353501884120001e-3 4.463711309020000e-3
4.576710698800000e-3 4.692570681739999e-3 4.811363674120001e-3 4.933163925420001e-3