<UPF version="2.0.1">
<PP_INFO>
Generated by new atomic code, or converted to UPF format
Author:
Generation date:
Pseudopotential type: NC
Element: Be
Functional:  SLA  PZ   NOGX NOGC
Suggested minimum cutoff for wavefunctions:   0. Ry
Suggested minimum cutoff for charge density:   0. Ry
The Pseudo was generated with a Non-Relativistic Calculation
L component and cutoff radius for Local Potential:  0   0.0000
Valence configuration:
nl pn  l   occ       Rcut    Rcut US       E pseu
2S  0  0  2.00      0.000      0.000     0.000000
Generation configuration: not available.
</PP_INFO>
<!--
END OF HUMAN READABLE SECTION
-->
<PP_HEADER generated="Generated by new atomic code, or converted to UPF format" author="" date="" comment="" element="Be" pseudo_type="NC" relativistic="no" is_ultrasoft="false" is_paw="false" is_coulomb="false" has_so="false" has_wfc="false" has_gipaw="false" paw_as_gipaw="false" core_correction="true" functional=" SLA  PZ   NOGX NOGC" z_valence="2.000000000000e0" total_psenergy="0.000000000000e0" wfc_cutoff="0.000000000000e0" rho_cutoff="0.000000000000e0" l_max="0" l_max_rho="0" l_local="0" mesh_size="153" number_of_wfc="1" number_of_proj="1"/>
<PP_MESH dx="6.250000000001e-2" mesh="153" xmin="-4.000000000001e0" rmax="6.117298306610e1" zmesh="4.000000000000e0">
<PP_R>
4.578909722180000e-3 4.874224027150000e-3 5.188584468420000e-3 5.523219416270000e-3
5.879436463999999e-3 6.258627537490000e-3 6.662274334090000e-3 7.091954112430000e-3
7.549345855580000e-3 8.036236831720000e-3 8.554529577920000e-3 9.106249334339999e-3
9.693551957930001e-3 1.031873234640000e-2 1.098423340590000e-2 1.169265559600000e-2
1.244676709200000e-2 1.324951460080000e-2 1.410403487590000e-2 1.501366697380000e-2
1.598196530170000e-2 1.701271350630000e-2 1.810993925860000e-2 1.927792999210000e-2
2.052124965600000e-2 2.184475654890000e-2 2.325362230270000e-2 2.475335209100000e-2
2.634980614050000e-2 2.804922263010000e-2 2.985824206670000e-2 3.178393323300000e-2
3.383382080920000e-2 3.601591477540000e-2 3.833874171120000e-2 4.081137811350001e-2
4.344348586260000e-2 4.624534997680000e-2 4.922791880100000e-2 5.240284678780000e-2
5.578254003710001e-2 5.938020477390000e-2 6.320989895119999e-2 6.728658718230001e-2
7.162619921500001e-2 7.624569217780000e-2 8.116311683959999e-2 8.639768814420000e-2
9.196986029289999e-2 9.790140666919999e-2 1.042155049200000e-1 1.109368275200000e-1
1.180916381850000e-1 1.257078944930000e-1 1.338153571300000e-1 1.424457061830000e-1
1.516326649280000e-1 1.614121316070000e-1 1.718223196980000e-1 1.829039072370000e-1
1.947001957680000e-1 2.072572795450000e-1 2.206242256460000e-1 2.348532657030000e-1
2.500000000000000e-1 2.661236147290000e-1 2.832871132670000e-1 3.015575623550000e-1
3.210063541720000e-1 3.417094852930000e-1 3.637478536550000e-1 3.872075746590000e-1
4.121803176750000e-1 4.387636642400000e-1 4.670614893580000e-1 4.971843673960000e-1
5.292500041530000e-1 5.633836968030001e-1 5.997188234920000e-1 6.383973645160000e-1
6.795704571150000e-1 7.233989860430000e-1 7.700542122300000e-1 8.197184419850000e-1
8.725857393649999e-1 9.288626844850000e-1 9.887691807300000e-1 1.052539314040000e0
1.120422267580000e0 1.192683295490000e0 1.269604759300000e0 1.351487231290000e0
1.438650669000000e0 1.531435665470000e0 1.630204780080000e0 1.735343955300000e0
1.847264024730000e0 1.966402318490000e0 2.093224372030000e0 2.228225745300000e0
2.371933959090000e0 2.524910556370000e0 2.687753296520000e0 2.861098491080000e0
3.045623490180000e0 3.242049329240000e0 3.451143546520000e0 3.673723182200000e0
3.910657971050000e0 4.162873740900000e0 4.431356030370000e0 4.717153939820000e0
5.021384230800000e0 5.345235689780000e0 5.689973773380000e0 6.056945553150000e0
6.447584979300000e0 6.863418483870000e0 7.306070945310000e0 7.777272037740000e0
8.278862989669999e0 8.812803778650000e0 9.381180789900000e0 9.986214968960001e0
1.063027050000000e1 1.131586404410000e1 1.204567457280000e1 1.282255383660000e1
1.364953750830000e1 1.452985704440000e1 1.546695231260000e1 1.646448503310000e1
1.752635308670000e1 1.865670574580000e1 1.985995988810000e1 2.114081725520000e1
2.250428282510000e1 2.395568436930000e1 2.550069327070000e1 2.714534668520000e1
2.889607113180000e1 3.075970760430000e1 3.274353830270000e1 3.485531508860000e1
3.710328977560000e1 3.949624637380000e1 4.204353541300001e1 4.475511048040000e1
4.764156711470000e1 5.071418420770001e1 5.398496807770001e1 5.746669938350000e1
6.117298306610000e1
</PP_R>
<PP_RAB>
2.861818576360000e-4 3.046390016970000e-4 3.242865292770000e-4 3.452012135169999e-4
3.674647790000000e-4 3.911642210930000e-4 4.163921458809999e-4 4.432471320269999e-4
4.718341159740000e-4 5.022648019820000e-4 5.346580986200000e-4 5.691405833960000e-4
6.058469973710000e-4 6.449207716529999e-4 6.865145878660000e-4 7.307909747490000e-4
7.779229432480000e-4 8.280946625520000e-4 8.815021797469999e-4 9.383541858639999e-4
9.988728313550000e-4 1.063294594140000e-3 1.131871203660000e-3 1.204870624500000e-3
1.282578103500000e-3 1.365297284300000e-3 1.453351393920000e-3 1.547084505680000e-3
1.646862883780000e-3 1.753076414380000e-3 1.866140129170000e-3 1.986495827060000e-3
2.114613800570000e-3 2.250994673460000e-3 2.396171356950000e-3 2.550711132090000e-3
2.715217866410000e-3 2.890334373550000e-3 3.076744925070000e-3 3.275177924240000e-3
3.486408752320000e-3 3.711262798370001e-3 3.950618684450000e-3 4.205411698890000e-3
4.476637450940000e-3 4.765355761110000e-3 5.072694802470000e-3 5.399855509020001e-3
5.748116268299999e-3 6.118837916820000e-3 6.513469057479999e-3 6.933551720019999e-3
7.380727386579999e-3 7.856743405800001e-3 8.363459820610000e-3 8.902856636420001e-3
9.477041558010001e-3 1.008825822540000e-2 1.073889498110000e-2 1.143149420230000e-2
1.216876223550000e-2 1.295357997160000e-2 1.378901410290000e-2 1.467832910650000e-2
1.562500000000000e-2 1.663272592060000e-2 1.770544457920000e-2 1.884734764720000e-2
2.006289713570000e-2 2.135684283080000e-2 2.273424085340000e-2 2.420047341620000e-2
2.576126985470000e-2 2.742272901500000e-2 2.919134308490000e-2 3.107402296220000e-2
3.307812525960000e-2 3.521148105020000e-2 3.748242646820000e-2 3.989983528220000e-2
4.247315356970000e-2 4.521243662770000e-2 4.812838826430000e-2 5.123240262400000e-2
5.453660871029999e-2 5.805391778030000e-2 6.179807379560000e-2 6.578370712720000e-2
7.002639172400000e-2 7.454270596820000e-2 7.935029745590000e-2 8.446795195530001e-2
8.991566681260000e-2 9.571472909190000e-2 1.018877987550000e-1 1.084589972060000e-1
1.154540015460000e-1 1.229001449050000e-1 1.308265232520000e-1 1.392641090810000e-1
1.482458724430000e-1 1.578069097730000e-1 1.679845810320000e-1 1.788186556930000e-1
1.903514681360000e-1 2.026280830780000e-1 2.156964716570000e-1 2.296076988870000e-1
2.444161231900000e-1 2.601796088060000e-1 2.769597518980000e-1 2.948221212390000e-1
3.138365144250000e-1 3.340772306110000e-1 3.556233608360000e-1 3.785590970720000e-1
4.029740612059999e-1 4.289636552419999e-1 4.566294340820000e-1 4.860795023590000e-1
5.174289368550000e-1 5.508002361650000e-1 5.863237993690000e-1 6.241384355600000e-1
6.643919062509999e-1 7.072415027540000e-1 7.528546607980000e-1 8.014096147900000e-1
8.530960942680000e-1 9.081160652730000e-1 9.666845195370000e-1 1.029030314570000e0
1.095397067920000e0 1.166044109110000e0 1.241247493000000e0 1.321301078450000e0
1.406517676570000e0 1.497230273080000e0 1.593793329420000e0 1.696584167820000e0
1.806004445740000e0 1.922481725270000e0 2.046471143920000e0 2.178457193040000e0
2.318955610980000e0 2.468515398360000e0 2.627720963310000e0 2.797194405030000e0
2.977597944670000e0 3.169636512980000e0 3.374060504850000e0 3.591668711470000e0
3.823311441630000e0
</PP_RAB>
</PP_MESH>
<PP_NLCC columns="4">
9.515255343869999e-2 9.515249395960000e-2 9.515242655529999e-2 9.515235016879998e-2
9.515226360220000e-2 9.515216549720000e-2 9.515205431420000e-2 9.515192830740000e-2
9.515178549740000e-2 9.515162363960000e-2 9.515144018839999e-2 9.515123225669999e-2
9.515099656969999e-2 9.515072941190001e-2 9.515042656769999e-2 9.515008325289999e-2
9.514969403709999e-2 9.514925275500000e-2 9.514875240499999e-2 9.514818503380001e-2
9.514754160410000e-2 9.514681184279999e-2 9.514598406789998e-2 9.514504498870000e-2
9.514397947650000e-2 9.514277030119999e-2 9.514139782599999e-2 9.513983965560000e-2
9.513807022800000e-2 9.513606034080000e-2 9.513377659930001e-2 9.513118077240000e-2
9.512822903890001e-2 9.512487110200000e-2 9.512104914669999e-2 9.511669660730000e-2
9.511173670680000e-2 9.510608071850001e-2 9.509962589120001e-2 9.509225296320000e-2
9.508382317440001e-2 9.507417466230001e-2 9.506311810020001e-2 9.505043140430001e-2
9.503585328810001e-2 9.501907539600001e-2 9.499973267610001e-2 9.497739157550001e-2
9.495153553669999e-2 9.492154715460000e-2 9.488668620130001e-2 9.484606254570000e-2
9.479860277789999e-2 9.474300909229999e-2 9.467770868460001e-2 9.460079157450000e-2
9.450993439079999e-2 9.440230724490000e-2 9.427446041310001e-2 9.412218717610001e-2
9.394035889129999e-2 9.372272831060000e-2 9.346169743230000e-2 9.314804702040000e-2
9.277062661410000e-2 9.231600677599999e-2 9.176809998690000e-2 9.110776358279999e-2
9.031240813109999e-2 8.935564835060001e-2 8.820705163730000e-2 8.683206164840001e-2
8.519220058809999e-2 8.324568185580000e-2 8.094859045530001e-2 7.825680490200000e-2
7.512883037630001e-2 7.152967348410000e-2 6.743579579200000e-2 6.284101757420001e-2
5.776299216440000e-2 5.224953862060000e-2 4.638374058770000e-2 4.028637282330000e-2
3.411403915290000e-2 2.805157645340000e-2 2.229797852970000e-2 1.704641284700000e-2
1.246072296390000e-2 8.652693993760000e-3 5.665554600700000e-3 3.468837515590000e-3
1.967303726340000e-3 1.022507234430000e-3 4.812005085040000e-4 2.022660977750000e-4
7.477464429110001e-5 2.389117896080000e-5 6.468355348069999e-6 1.451157253740000e-6
2.630327082440000e-7 3.743156002330000e-8 4.048657057530000e-9 3.208298688959999e-10
1.786733586270000e-11 6.671119310360002e-13 1.583093152940000e-14 0.000000000000000e0
0.000000000000000e0 0.000000000000000e0 0.000000000000000e0 0.000000000000000e0
0.000000000000000e0 0.000000000000000e0 0.000000000000000e0 0.000000000000000e0
0.000000000000000e0 0.000000000000000e0 0.000000000000000e0 0.000000000000000e0
0.000000000000000e0 0.000000000000000e0 0.000000000000000e0 0.000000000000000e0
0.000000000000000e0 0.000000000000000e0 0.000000000000000e0 0.000000000000000e0
0.000000000000000e0 0.000000000000000e0 0.000000000000000e0 0.000000000000000e0
0.000000000000000e0 0.000000000000000e0 0.000000000000000e0 0.000000000000000e0
0.000000000000000e0 0.000000000000000e0 0.000000000000000e0 0.000000000000000e0
0.000000000000000e0 0.000000000000000e0 0.000000000000000e0 0.000000000000000e0
0.000000000000000e0 0.000000000000000e0 0.000000000000000e0 0.000000000000000e0
0.000000000000000e0 0.000000000000000e0 0.000000000000000e0 0.000000000000000e0
0.000000000000000e0
</PP_NLCC>
<PP_LOCAL columns="4">
-7.906996268650000e0 -7.906981971420000e0 -7.906965770570000e0 -7.906947412660000e0
-7.906926610490000e0 -7.906903038640000e0 -7.906876328340000e0 -7.906846061760000e0
-7.906811765410000e0 -7.906772902810000e0 -7.906728866020000e0 -7.906678966200000e0
-7.906622422800000e0 -7.906558351410000e0 -7.906485749860000e0 -7.906403482610000e0
-7.906310263000000e0 -7.906204633130000e0 -7.906084941120000e0 -7.905949315260000e0
-7.905795634830000e0 -7.905621496960000e0 -7.905424179170000e0 -7.905200596860000e0
-7.904947255230000e0 -7.904660194820000e0 -7.904334929770000e0 -7.903966378050000e0
-7.903548782280000e0 -7.903075620320000e0 -7.902539503820000e0 -7.901932063620000e0
-7.901243819950000e0 -7.900464035580000e0 -7.899580549800000e0 -7.898579590600000e0
-7.897445562360000e0 -7.896160805910000e0 -7.894705327490000e0 -7.893056492560000e0
-7.891188680290000e0 -7.889072893710000e0 -7.886676320150000e0 -7.883961835970000e0
-7.880887448950000e0 -7.877405671100000e0 -7.873462813830000e0 -7.868998196870000e0
-7.863943261630000e0 -7.858220578820000e0 -7.851742739930000e0 -7.844411121290000e0
-7.836114509630000e0 -7.826727577620000e0 -7.816109198680000e0 -7.804100591160000e0
-7.790523283880000e0 -7.775176897730000e0 -7.757836742330000e0 -7.738251232730000e0
-7.716139139060000e0 -7.691186693660000e0 -7.663044594490000e0 -7.631324963250000e0
-7.595598341180000e0 -7.555390837270000e0 -7.510181582730000e0 -7.459400694680000e0
-7.402428010540000e0 -7.338592925700000e0 -7.267175748750000e0 -7.187411082250000e0
-7.098493839140000e0 -6.999588611350000e0 -6.889843209510000e0 -6.768407278140000e0
-6.634456938170000e0 -6.487226391860000e0 -6.326047304040000e0 -6.150396500180000e0
-5.959952036030000e0 -5.754656930000000e0 -5.534788742880000e0 -5.301031693560000e0
-5.054546108760000e0 -4.797027792920000e0 -4.530747572010000e0 -4.258559187550000e0
-3.983862494730000e0 -3.710509376710000e0 -3.442642914900000e0 -3.184467107030000e0
-2.939955361500000e0 -2.712520746930000e0 -2.504687619040000e0 -2.317818860240000e0
-2.151959745890000e0 -2.005851922080000e0 -1.877144593040000e0 -1.762785764680000e0
-1.659523924010000e0 -1.564408169610000e0 -1.475163923280000e0 -1.390355231530000e0
-1.309316783170000e0 -1.231919703780000e0 -1.158285298370000e0 -1.088554953940000e0
-1.022770709930000e0 -9.608567188009999e-1 -9.026547685320001e-1 -8.479684112610000e-1
-7.965930338610000e-1 -7.483299530960000e-1 -7.029909376759999e-1 -6.603988701610000e-1
-6.203873253070000e-1 -5.827999573980000e-1 -5.474898929870000e-1 -5.143191572300000e-1
-4.831581347569999e-1 -4.538850631950000e-1 -4.263855573820000e-1 -4.005521623990000e-1
-3.762839336960000e-1 -3.534860426410000e-1 -3.320694059790000e-1 -3.119503377380000e-1
-2.930502222200000e-1 -2.752952068140000e-1 -2.586159134110000e-1 -2.429471673090000e-1
-2.282277425440000e-1 -2.144001226420000e-1 -2.014102758790000e-1 -1.892074441460000e-1
-1.777439446120000e-1 -1.669749834040000e-1 -1.568584805730000e-1 -1.473549056630000e-1
-1.384271232500000e-1 -1.300402478290000e-1 -1.221615075020000e-1 -1.147601159200000e-1
-1.078071519850000e-1 -1.012754468400000e-1 -9.513947770360000e-2 -8.937526814400000e-2
-8.396029438690000e-2 -7.887339730470000e-2 -7.409469973650000e-2 -6.960552881770000e-2
-6.538834301540000e-2
</PP_LOCAL>
<PP_NONLOCAL>
<PP_BETA.1 index="1" label="2S" angular_momentum="0" cutoff_radius_index="125" cutoff_radius="0.000000000000e0" ultrasoft_cutoff_radius="0.000000000000e0">
1.399958688840000e-2 1.490246210440000e-2 1.586356335690000e-2 1.688664451030000e-2
1.797570277570000e-2 1.913499227970000e-2 2.036903959840000e-2 2.168266497830000e-2
2.308099919740000e-2 2.456950322290000e-2 2.615398635070000e-2 2.784063857640000e-2
2.963604134120001e-2 3.154720392979999e-2 3.358158392050000e-2 3.574712318570000e-2
3.805226642890000e-2 4.050600807290000e-2 4.311791439939999e-2 4.589817102710000e-2
4.885761263500000e-2 5.200777064780000e-2 5.536091294580000e-2 5.893009263090000e-2
6.272919704890000e-2 6.677300255330000e-2 7.107722039570000e-2 7.565856919710000e-2
8.053482200640000e-2 8.572488472280000e-2 9.124885226689999e-2 9.712808900640001e-2
1.033853024540000e-1 1.100446205990000e-1 1.171316744090000e-1 1.246736867530000e-1
1.326995586750000e-1 1.412399663910000e-1 1.503274461930000e-1 1.599965081210000e-1
1.702836986120000e-1 1.812277583890000e-1 1.928696683740000e-1 2.052527333380000e-1
2.184227283830000e-1 2.324279125520000e-1 2.473191526630000e-1 2.631499142260000e-1
2.799763416920000e-1 2.978572063570000e-1 3.168538640370000e-1 3.370301599120000e-1
3.584522394180000e-1 3.811882994900000e-1 4.053081358280000e-1 4.308826506030000e-1
4.579830504629999e-1 4.866798511940000e-1 5.170416004200000e-1 5.491330553719999e-1
5.830129216130000e-1 6.187309739950000e-1 6.563242527949999e-1 6.958122330160000e-1
7.371908183050000e-1 7.804245728280001e-1 8.254371994960000e-1 8.720995892079999e-1
9.202153312270001e-1 9.695030583530000e-1 1.019575560700000e0 1.069915579330000e0
1.119848560160000e0 1.168513219510000e0 1.214832484040000e0 1.257486675220000e0
1.294895223660000e0 1.325214270800000e0 1.346357883130000e0 1.356056882430000e0
1.351966422530000e0 1.331833012160000e0 1.293727697530000e0 1.236337347050000e0
1.159291573980000e0 1.063476403730000e0 9.512667490420000e-1 8.265922303280000e-1
6.947623345229999e-1 5.620131732670000e-1 4.348100110140000e-1 3.190239083080000e-1
2.191667913940000e-1 1.378785897040000e-1 7.579242989000000e-2 3.177877084820000e-2
3.443961601029999e-3 -1.230097813250000e-2 -1.875068020310000e-2 -1.904884930050000e-2
-1.593746481620000e-2 -1.157173340270000e-2 -7.404748333820001e-3 -4.183133586660000e-3
-2.075897147000000e-3 -8.967113408880000e-4 -3.330319315760000e-4 -1.047351224250000e-4
-2.739071223640000e-5 -5.832194797220001e-6 -9.866691507070001e-7 -1.289616369560000e-7
-1.261297163320000e-8 -8.901074149219999e-10 -4.348962695319999e-11 -1.403709688650000e-12
-2.838054368980000e-14 -3.353162235650001e-16 0.000000000000000e0 0.000000000000000e0
0.000000000000000e0 0.000000000000000e0 0.000000000000000e0 0.000000000000000e0
0.000000000000000e0 0.000000000000000e0 0.000000000000000e0 0.000000000000000e0
0.000000000000000e0 0.000000000000000e0 0.000000000000000e0 0.000000000000000e0
0.000000000000000e0 0.000000000000000e0 0.000000000000000e0 0.000000000000000e0
0.000000000000000e0 0.000000000000000e0 0.000000000000000e0 0.000000000000000e0
0.000000000000000e0 0.000000000000000e0 0.000000000000000e0 0.000000000000000e0
0.000000000000000e0 0.000000000000000e0 0.000000000000000e0 0.000000000000000e0
0.000000000000000e0 0.000000000000000e0 0.000000000000000e0 0.000000000000000e0
0.000000000000000e0
</PP_BETA.1>
<PP_DIJ>
3.377848266690000e0
</PP_DIJ>
</PP_NONLOCAL>
<PP_PSWFC>
<PP_CHI.1 index="1" label="2S" l="0" occupation="2.000000000000e0" n="0" pseudo_energy="0.000000000000e0" cutoff_radius="0.000000000000e0" ultrasoft_cutoff_radius="0.000000000000e0">
9.765369400000001e-4 1.039521900000000e-3 1.106569800000000e-3 1.177942800000000e-3
1.253920100000000e-3 1.334798900000000e-3 1.420895500000000e-3 1.512546800000000e-3
1.610111500000000e-3 1.713971500000000e-3 1.824533200000000e-3 1.942229800000000e-3
2.067522100000000e-3 2.200901100000000e-3 2.342889500000000e-3 2.494044300000000e-3
2.654958200000000e-3 2.826263000000000e-3 3.008631300000000e-3 3.202780000000000e-3
3.409472600000000e-3 3.629522800000000e-3 3.863797600000001e-3 4.113221100000001e-3
4.378778400000000e-3 4.661519999999999e-3 4.962565700000000e-3 5.283110500000000e-3
5.624428899999999e-3 5.987881600000000e-3 6.374920900000001e-3 6.787098100000000e-3
7.226070800000000e-3 7.693610900000001e-3 8.191613500000001e-3 8.722106900000000e-3
9.287263200000000e-3 9.889410600000001e-3 1.053104600000000e-2 1.121485100000000e-2
1.194370600000000e-2 1.272071300000000e-2 1.354921300000000e-2 1.443280900000000e-2
1.537539700000000e-2 1.638119200000000e-2 1.745476700000000e-2 1.860108900000000e-2
1.982556900000000e-2 2.113411200000000e-2 2.253317900000000e-2 2.402985900000000e-2
2.563195100000000e-2 2.734806200000000e-2 2.918771500000000e-2 3.116148400000000e-2
3.328114300000000e-2 3.555984500000000e-2 3.801233400000000e-2 4.065518200000000e-2
4.350707200000000e-2 4.658913000000000e-2 4.992530200000000e-2 5.354279000000000e-2
5.747256100000000e-2 6.174991199999999e-2 6.641512100000000e-2 7.151416100000000e-2
7.709949400000000e-2 8.323091100000001e-2 8.997640899999999e-2 9.741306099999999e-2
1.056278100000000e-1 1.147180800000000e-1 1.247921300000000e-1 1.359688300000000e-1
1.483767200000000e-1 1.621520600000000e-1 1.774352700000000e-1 1.943655700000000e-1
2.130732100000000e-1 2.336688200000000e-1 2.562298600000000e-1 2.807839900000000e-1
3.072902700000000e-1 3.356191700000000e-1 3.655340000000000e-1 3.966762100000000e-1
4.285584000000000e-1 4.605679500000000e-1 4.919836600000000e-1 5.220057400000000e-1
5.497968800000001e-1 5.745297600000000e-1 5.954345100000000e-1 6.118395599999999e-1
6.232012000000000e-1 6.291205199999999e-1 6.293498500000000e-1 6.237926300000000e-1
6.125001500000000e-1 5.956671800000000e-1 5.736260700000000e-1 5.468383300000000e-1
5.158825100000000e-1 4.814380300000000e-1 4.442649400000000e-1 4.051802000000000e-1
3.650308500000000e-1 3.246650000000000e-1 2.849015400000000e-1 2.465000500000000e-1
2.101326300000000e-1 1.763594500000000e-1 1.456101100000000e-1 1.181723200000000e-1
9.418909800000000e-2 7.366487900000001e-2 5.647985600000000e-2 4.241118100000000e-2
3.115879900000000e-2 2.237332200000000e-2 1.568329600000000e-2 1.071953500000000e-2
7.134815000000000e-3 4.617960399999999e-3 2.902156000000000e-3 1.767985700000000e-3
1.042167100000000e-3 5.932037200000000e-4 3.252472200000001e-4 1.715170300000000e-4
8.678923399999999e-5 4.202688999999999e-5 1.942012100000000e-5 8.537232100000001e-6
3.558851800000000e-6 1.401909100000000e-6 5.199118800000000e-7 1.808028600000000e-7
5.870607400000000e-8 1.771585000000000e-8 4.945166900000000e-9 1.275147300000000e-9
3.251823400000000e-10 7.578165200000003e-11 1.604526500000000e-11 3.067523700000000e-12
5.260491200000001e-13 8.035571600000001e-14 1.085219900000000e-14 1.285519300000000e-15
1.324421400000000e-16
</PP_CHI.1>
</PP_PSWFC>
<PP_RHOATOM>
1.907248790370000e-6 2.161211561160000e-6 2.448993444540000e-6 2.775098480140000e-6
3.144631234370000e-6 3.563376206880000e-6 4.037888043840000e-6 4.575595644380000e-6
5.184918084860000e-6 5.875396605620001e-6 6.657842795800000e-6 7.544513192020002e-6
8.549295267980000e-6 9.687931303959999e-6 1.097826241840000e-5 1.244051394070000e-5
1.409760608750000e-5 1.597552509030000e-5 1.810372459870000e-5 2.051559945680000e-5
2.324900682030000e-5 2.634687151140000e-5 2.985786378750000e-5 3.383717563500000e-5
3.834740055260000e-5 4.345953742080001e-5 4.925411665360001e-5 5.582251311039999e-5
6.326840090229999e-5 7.170945211120000e-5 8.127923296250000e-5 9.212940123800001e-5
1.044321984130000e-4 1.183832973610000e-4 1.342050634670000e-4 1.521502975500000e-4
1.725065154920000e-4 1.956008840310000e-4 2.218058597080000e-4 2.515457659040000e-4
2.853042260290000e-4 3.236330784570001e-4 3.671623458390000e-4 4.166119512610000e-4
4.728056658150001e-4 5.366869026820000e-4 6.093377820490000e-4 6.920010239719999e-4
7.861063723479999e-4 8.933013800570000e-4 1.015488311690000e-3 1.154868247120000e-3
1.313993824130000e-3 1.495832990310000e-3 1.703845413840000e-3 1.942076170160000e-3
2.215268958770000e-3 2.529005152850000e-3 2.889875072260000e-3 3.305687646910000e-3
3.785730628030000e-3 4.341094068310000e-3 4.985071559580001e-3 5.733660721970000e-3
6.606190535800001e-3 7.626103264020000e-3 8.821936594890001e-3 1.022855044710000e-2
1.188866395010000e-2 1.385476909180000e-2 1.619150835310000e-2 1.897860890680000e-2
2.231446849080000e-2 2.632047575780000e-2 3.114615141990000e-2 3.697504546310000e-2
4.403130207590000e-2 5.258658112450000e-2 6.296655007989999e-2 7.555594960280000e-2
9.080038563940001e-2 1.092022348800000e-1 1.313074823110000e-1 1.576792980810000e-1
1.888546200730000e-1 2.252804545430000e-1 2.672302103120000e-1 3.147040311600000e-1
3.673246044210000e-1 4.242456731340000e-1 4.840958434140000e-1 5.449799851860000e-1
6.045532185150000e-1 6.601688902510000e-1 7.090845113980000e-1 7.486952943620000e-1
7.767594713630000e-1 7.915852573700000e-1 7.921624673899999e-1 7.782344904850000e-1
7.503128675000000e-1 7.096387786579999e-1 6.580937363669999e-1 5.980643183140000e-1
5.322695282480000e-1 4.635651534610000e-1 3.947426738260000e-1 3.283419889440000e-1
2.664950429030000e-1 2.108147244500000e-1 1.623377749890000e-1 1.215245493000000e-1
8.831144438139999e-2 6.220531120860000e-2 4.240460826840000e-2 2.792939442840000e-2
1.774317236410000e-2 1.085302879620000e-2 6.379948267560000e-3 3.597416547630000e-3
1.941741510240000e-3 1.001131074630000e-3 4.919315468470000e-4 2.298168612320000e-4
1.018111701680000e-4 4.265111651190000e-5 1.684501889669999e-5 6.251546870809999e-6
2.172224528640000e-6 7.037813068440001e-7 2.115715082350000e-7 5.883618316000002e-8
1.506474227660000e-8 3.532518966140000e-9 7.542821993089999e-10 1.457686638590000e-10
2.533085226870000e-11 3.930698249330001e-12 5.406167259300000e-13 6.537934836839998e-14
6.892806248990000e-15 6.277026824450003e-16 4.890935133769999e-17 3.252001273390001e-18
2.114871084959999e-19 1.148571755970000e-20 5.149010578400000e-22 1.881940330010000e-23
5.534553533060000e-25 1.291408218769999e-26 2.355404462710001e-28 3.305119741339999e-30
3.508184089559999e-32
</PP_RHOATOM>
</UPF>
