<UPF version="2.0.1">
<PP_INFO>
Generated by new atomic code, or converted to UPF format
Author:
Generation date:
Pseudopotential type: NC
Element: He
Functional: SLA  PZ   NOGX NOGC
Suggested minimum cutoff for wavefunctions:   0. Ry
Suggested minimum cutoff for charge density:   0. Ry
The Pseudo was generated with a Non-Relativistic Calculation
L component and cutoff radius for Local Potential:  0   0.0000
Valence configuration:
nl pn  l   occ       Rcut    Rcut US       E pseu
s   0  0  2.00      0.000      0.000     0.000000
Generation configuration: not available.
</PP_INFO>
<!--
END OF HUMAN READABLE SECTION
-->
<PP_HEADER generated="Generated by new atomic code, or converted to UPF format" author="" date="" comment="" element="He" pseudo_type="NC" relativistic="no" is_ultrasoft="false" is_paw="false" is_coulomb="false" has_so="false" has_wfc="false" has_gipaw="false" paw_as_gipaw="false" core_correction="false" functional="SLA  PZ   NOGX NOGC" z_valence="2.000000000000e0" total_psenergy="0.000000000000e0" wfc_cutoff="0.000000000000e0" rho_cutoff="0.000000000000e0" l_max="-1" l_max_rho="0" l_local="0" mesh_size="415" number_of_wfc="1" number_of_proj="0"/>
<PP_MESH dx="2.439988682353e-2" mesh="415" xmin="-5.075173815234e0" rmax="7.619014694510e1" zmesh="2.000000000000e0">
<PP_R>
3.125000000000000e-3 3.202187500000000e-3 3.281281531250000e-3 3.362329185070000e-3
3.445378715940000e-3 3.530479570230000e-3 3.617682415610001e-3 3.707039171280000e-3
3.798603038810000e-3 3.892428533870000e-3 3.988571518650001e-3 4.087089235160001e-3
4.188040339270000e-3 4.291484935650000e-3 4.397484613560000e-3 4.506102483519999e-3
4.617403214860000e-3 4.731453074270000e-3 4.848319965200000e-3 4.968073468340001e-3
5.090784883010000e-3 5.216527269619999e-3 5.345375493180001e-3 5.477406267859999e-3
5.612698202680000e-3 5.751331848280000e-3 5.893389744940000e-3 6.038956471640001e-3
6.188118696489999e-3 6.340965228290001e-3 6.497587069430000e-3 6.658077470040000e-3
6.822531983550000e-3 6.991048523550001e-3 7.163727422080001e-3 7.340671489399999e-3
7.521986075190000e-3 7.707779131250001e-3 7.898161275790000e-3 8.093245859300000e-3
8.293149032030001e-3 8.497989813120000e-3 8.707890161500000e-3 8.922975048490001e-3
9.143372532190000e-3 9.369213833740000e-3 9.600633415430000e-3 9.837769060790000e-3
1.008076195660000e-2 1.032975677690000e-2 1.058490176930000e-2 1.084634884300000e-2
1.111425365940000e-2 1.138877572480000e-2 1.167007848520000e-2 1.195832942380000e-2
1.225370016060000e-2 1.255636655450000e-2 1.286650880840000e-2 1.318431157600000e-2
1.350996407190000e-2 1.384366018450000e-2 1.418559859110000e-2 1.453598287630000e-2
1.489502165330000e-2 1.526292868820000e-2 1.563992302670000e-2 1.602622912550000e-2
1.642207698490000e-2 1.682770228640000e-2 1.724334653290000e-2 1.766925719230000e-2
1.810568784490000e-2 1.855289833470000e-2 1.901115492360000e-2 1.948073045020000e-2
1.996190449230000e-2 2.045496353330000e-2 2.096020113250000e-2 2.147791810050000e-2
2.200842267760000e-2 2.255203071770000e-2 2.310906587640000e-2 2.367985980360000e-2
2.426475234070000e-2 2.486409172360000e-2 2.547823478910000e-2 2.610754718840000e-2
2.675240360400000e-2 2.741318797300000e-2 2.809029371590000e-2 2.878412397070000e-2
2.949509183280000e-2 3.022362060110000e-2 3.097014402990000e-2 3.173510658740000e-2
3.251896372010000e-2 3.332218212400000e-2 3.414524002250000e-2 3.498862745109999e-2
3.585284654910001e-2 3.673841185890000e-2 3.764585063180000e-2 3.857570314240000e-2
3.952852300999999e-2 4.050487752830001e-2 4.150534800330000e-2 4.253053009899999e-2
4.358103419240001e-2 4.465748573700000e-2 4.576052563470000e-2 4.689081061780000e-2
4.804901364010000e-2 4.923582427700000e-2 5.045194913670001e-2 5.169811228030000e-2
5.297505565370000e-2 5.428353952829999e-2 5.562434295470000e-2 5.699826422559999e-2
5.840612135200000e-2 5.984875254940000e-2 6.132701673740000e-2 6.284179405080000e-2
6.439398636380000e-2 6.598451782700000e-2 6.761433541740001e-2 6.928440950220000e-2
7.099573441690000e-2 7.274932905700000e-2 7.454623748470000e-2 7.638752955050000e-2
7.827430153040000e-2 8.020767677820000e-2 8.218880639469999e-2 8.421886991259999e-2
8.629907599950000e-2 8.843066317660000e-2 9.061490055709999e-2 9.285308860090000e-2
9.514655988930000e-2 9.749667991860001e-2 9.990484791260000e-2 1.023724976560000e-1
1.049010983480000e-1 1.074921554770000e-1 1.101472117180000e-1 1.128678478470000e-1
1.156556836890000e-1 1.185123790760000e-1 1.214396348390000e-1 1.244391938200000e-1
1.275128419070000e-1 1.306624091020000e-1 1.338897706070000e-1 1.371968479410000e-1
1.405856100850000e-1 1.440580746540000e-1 1.476163090980000e-1 1.512624319330000e-1
1.549986140020000e-1 1.588270797670000e-1 1.627501086380000e-1 1.667700363210000e-1
1.708892562180000e-1 1.751102208470000e-1 1.794354433020000e-1 1.838674987510000e-1
1.884090259700000e-1 1.930627289120000e-1 1.978313783160000e-1 2.027178133600000e-1
2.077249433500000e-1 2.128557494510000e-1 2.181132864630000e-1 2.235006846380000e-1
2.290211515490000e-1 2.346779739920000e-1 2.404745199500000e-1 2.464142405920000e-1
2.525006723350000e-1 2.587374389420000e-1 2.651282536840000e-1 2.716769215500000e-1
2.783873415120000e-1 2.852635088470000e-1 2.923095175160000e-1 2.995295625980000e-1
3.069279427940000e-1 3.145090629810000e-1 3.222774368370000e-1 3.302376895270000e-1
3.383945604580000e-1 3.467529061020000e-1 3.553177028820000e-1 3.640940501440000e-1
3.730871731820000e-1 3.823024263600000e-1 3.917452962910000e-1 4.014214051090000e-1
4.113365138150000e-1 4.214965257070000e-1 4.319074898920000e-1 4.425756048920000e-1
4.535072223330000e-1 4.647088507239999e-1 4.761871593370000e-1 4.879489821730000e-1
5.000013220320000e-1 5.123513546870000e-1 5.250064331470000e-1 5.379740920460000e-1
5.512620521200001e-1 5.648782248070000e-1 5.788307169599999e-1 5.931278356689999e-1
6.077780932100000e-1 6.227902121120001e-1 6.381731303510000e-1 6.539360066710000e-1
6.700882260360000e-1 6.866394052190000e-1 7.035993985280000e-1 7.209783036710000e-1
7.387864677720000e-1 7.570344935260001e-1 7.757332455160000e-1 7.948938566800000e-1
8.145277349400001e-1 8.346465699930000e-1 8.552623402720000e-1 8.763873200770000e-1
8.980340868830000e-1 9.202155288290001e-1 9.429448523910001e-1 9.662355902450001e-1
9.901016093240001e-1 1.014557119070000e0 1.039616679920000e0 1.065295211910000e0
1.091608003640000e0 1.118570721330000e0 1.146199418150000e0 1.174510543780000e0
1.203520954210000e0 1.233247921780000e0 1.263709145450000e0 1.294922761340000e0
1.326907353540000e0 1.359681965180000e0 1.393266109720000e0 1.427679782630000e0
1.462943473260000e0 1.499078177050000e0 1.536105408020000e0 1.574047211600000e0
1.612926177720000e0 1.652765454310000e0 1.693588761040000e0 1.735420403430000e0
1.778285287400000e0 1.822208934000000e0 1.867217494670000e0 1.913337766790000e0
1.960597209630000e0 2.009023960700000e0 2.058646852530000e0 2.109495429790000e0
2.161599966910000e0 2.214991486090000e0 2.269701775790000e0 2.325763409660000e0
2.383209765880000e0 2.442075047090000e0 2.502394300760000e0 2.564203439980000e0
2.627539264950000e0 2.692439484800000e0 2.758942740070000e0 2.827088625750000e0
2.896917714810000e0 2.968471582360000e0 3.041792830450000e0 3.116925113360000e0
3.193913163660000e0 3.272802818800000e0 3.353641048430000e0 3.436475982320000e0
3.521356939080000e0 3.608334455480000e0 3.697460316530000e0 3.788787586350000e0
3.882370639730000e0 3.978265194530000e0 4.076528344840000e0 4.177218594960000e0
4.280395894250000e0 4.386121672840000e0 4.494458878160000e0 4.605472012450000e0
4.719227171160000e0 4.835792082280000e0 4.955236146720000e0 5.077630479540000e0
5.203047952380000e0 5.331563236810000e0 5.463252848760000e0 5.598195194120000e0
5.736470615420000e0 5.878161439620000e0 6.023352027180000e0 6.172128822250000e0
6.324580404160000e0 6.480797540140000e0 6.640873239380000e0 6.804902808390000e0
6.972983907760000e0 7.145216610280000e0 7.321703460560000e0 7.502549536030000e0
7.687862509570000e0 7.877752713560000e0 8.072333205580000e0 8.271719835760001e0
8.476031315700000e0 8.685389289200000e0 8.899918404650000e0 9.119746389239999e0
9.345004125050000e0 9.575825726940000e0 9.812348622400000e0 1.005471363340000e1
1.030306506010000e1 1.055755076710000e1 1.081832227100000e1 1.108553483110000e1
1.135934754150000e1 1.163992342570000e1 1.192742953440000e1 1.222203704390000e1
1.252392135880000e1 1.283326221640000e1 1.315024379320000e1 1.347505481480000e1
1.380788866880000e1 1.414894351890000e1 1.449842242380000e1 1.485653345770000e1
1.522348983410000e1 1.559951003300000e1 1.598481793080000e1 1.637964293370000e1
1.678422011410000e1 1.719879035100000e1 1.762360047260000e1 1.805890340430000e1
1.850495831840000e1 1.896203078890000e1 1.943039294930000e1 1.991032365520000e1
2.040210864950000e1 2.090604073310000e1 2.142241993920000e1 2.195155371170000e1
2.249375708840000e1 2.304935288850000e1 2.361867190480000e1 2.420205310090000e1
2.479984381250000e1 2.541239995460000e1 2.604008623350000e1 2.668327636350000e1
2.734235328970000e1 2.801770941590000e1 2.870974683850000e1 2.941887758540000e1
3.014552386180000e1 3.089011830120000e1 3.165310422320000e1 3.243493589750000e1
3.323607881420000e1 3.405700996090000e1 3.489821810690001e1 3.576020409420000e1
3.664348113530000e1 3.754857511930000e1 3.847602492480000e1 3.942638274040000e1
4.040021439410000e1 4.139809968960001e1 4.242063275200000e1 4.346842238100001e1
4.454209241380000e1 4.564228209640000e1 4.676964646420000e1 4.792485673180000e1
4.910860069310001e1 5.032158313020000e1 5.156452623350000e1 5.283817003150000e1
5.414327283130000e1 5.548061167020000e1 5.685098277850000e1 5.825520205310000e1
5.969410554380000e1 6.116854995070000e1 6.267941313450001e1 6.422759463890000e1
6.581401622650001e1 6.743962242729999e1 6.910538110130000e1 7.081228401450000e1
7.256134742960000e1 7.435361271120001e1 7.619014694510000e1
</PP_R>
<PP_RAB>
7.624964632350001e-5 7.813301258770000e-5 8.006289799870000e-5 8.204045157920001e-5
8.406685073319998e-5 8.614330194629998e-5 8.827104150440000e-5 9.045133622960000e-5
9.268548423439999e-5 9.497481569500000e-5 9.732069364270000e-5 9.972451477569999e-5
1.021877102910000e-4 1.047117467350000e-4 1.072981268790000e-4 1.099483906130000e-4
1.126641158610000e-4 1.154469195230000e-4 1.182984584350000e-4 1.212204303590000e-4
1.242145749880000e-4 1.272826749910000e-4 1.304265570630000e-4 1.336480930220000e-4
1.369492009200000e-4 1.403318461830000e-4 1.437980427830000e-4 1.473498544400000e-4
1.509893958450000e-4 1.547188339220000e-4 1.585403891200000e-4 1.624563367310000e-4
1.664690082490000e-4 1.705807927520000e-4 1.747941383330000e-4 1.791115535500000e-4
1.835356089230000e-4 1.880689384630000e-4 1.927142412430000e-4 1.974742830020000e-4
2.023518977920000e-4 2.073499896680000e-4 2.124715344120000e-4 2.177195813120000e-4
2.230972549710000e-4 2.286077571690000e-4 2.342543687710000e-4 2.400404516790000e-4
2.459694508360000e-4 2.520448962710000e-4 2.582704052090000e-4 2.646496842180000e-4
2.711865314180000e-4 2.778848387440000e-4 2.847485942610000e-4 2.917818845390000e-4
2.989888970880000e-4 3.063739228460000e-4 3.139413587400000e-4 3.216957103009999e-4
3.296415943450000e-4 3.377837417259999e-4 3.461270001460001e-4 3.546763370500000e-4
3.634368425750000e-4 3.724137325870000e-4 3.816123517810000e-4 3.910381768700000e-4
4.006968198390000e-4 4.105940312890000e-4 4.207357038620000e-4 4.311278757469999e-4
4.417767342780000e-4 4.526886196150000e-4 4.638700285199999e-4 4.753276182240000e-4
4.870682103940000e-4 4.990987951909998e-4 5.114265354320001e-4 5.240587708569999e-4
5.370030224970001e-4 5.502669971530000e-4 5.638585919830000e-4 5.777858992050000e-4
5.920572109149999e-4 6.066810240249999e-4 6.216660453179999e-4 6.370211966380000e-4
6.527556201940000e-4 6.688786840130001e-4 6.853999875080000e-4 7.023293671999999e-4
7.196769025700000e-4 7.374529220630000e-4 7.556680092380001e-4 7.743330090660000e-4
7.934590343900000e-4 8.130574725399999e-4 8.331399921110000e-4 8.537185499169999e-4
8.748053980990001e-4 8.964130914330003e-4 9.185544947909998e-4 9.412427908120000e-4
9.644914877450001e-4 9.883144274930000e-4 1.012725793850000e-3 1.037740120960000e-3
1.063372301950000e-3 1.089637597810000e-3 1.116551646470000e-3 1.144130472140000e-3
1.172390494800000e-3 1.201348540020000e-3 1.231021848960000e-3 1.261428088630000e-3
1.292585362420000e-3 1.324512220870000e-3 1.357227672730000e-3 1.390751196240000e-3
1.425102750790000e-3 1.460302788740000e-3 1.496372267620000e-3 1.533332662630000e-3
1.571205979390000e-3 1.610014767090000e-3 1.649782131830000e-3 1.690531750490000e-3
1.732287884730000e-3 1.775075395480000e-3 1.818919757750000e-3 1.863847075760000e-3
1.909884098530000e-3 1.957058235770000e-3 2.005397574190000e-3 2.054930894270000e-3
2.105687687360000e-3 2.157698173240000e-3 2.210993318120000e-3 2.265604853080000e-3
2.321565292950000e-3 2.378907955680000e-3 2.437666982190001e-3 2.497877356650000e-3
2.559574927360000e-3 2.622796428060000e-3 2.687579499840000e-3 2.753962713480000e-3
2.821985592510000e-3 2.891688636640000e-3 2.963113345970000e-3 3.036302245610000e-3
3.111298911080000e-3 3.188147994180000e-3 3.266895249640001e-3 3.347587562300000e-3
3.430272975089999e-3 3.515000717580000e-3 3.601821235300000e-3 3.690786219810000e-3
3.781948639440000e-3 3.875362770840001e-3 3.971084231280000e-3 4.069170011790000e-3
4.169678511080000e-3 4.272669570300000e-3 4.378204508690001e-3 4.486346160060001e-3
4.597158910210000e-3 4.710708735290000e-3 4.827063241049999e-3 4.946291703110000e-3
5.068465108170001e-3 5.193656196350000e-3 5.321939504400000e-3 5.453391410150000e-3
5.588090177980000e-3 5.726116005380000e-3 5.867551070710000e-3 6.012479582160001e-3
6.160987827840001e-3 6.313164227190001e-3 6.469099383599999e-3 6.628886138370000e-3
6.792619625990000e-3 6.960397330750001e-3 7.132319144819999e-3 7.308487427700000e-3
7.489007067170000e-3 7.673985541719999e-3 7.863532984599999e-3 8.057762249320000e-3
8.256788976880001e-3 8.460731664610000e-3 8.669711736730001e-3 8.883853616620002e-3
9.103284800959999e-3 9.328135935539999e-3 9.558540893150001e-3 9.794636853209999e-3
1.003656438350000e-2 1.028446752380000e-2 1.053849387160000e-2 1.079879467020000e-2
1.106552489860000e-2 1.133884336360000e-2 1.161891279460000e-2 1.190589994070000e-2
1.219997566920000e-2 1.250131506820000e-2 1.281009755040000e-2 1.312650695990000e-2
1.345073168180000e-2 1.378296475440000e-2 1.412340398380000e-2 1.447225206220000e-2
1.482971668810000e-2 1.519601069030000e-2 1.557135215440000e-2 1.595596455260000e-2
1.635007687710000e-2 1.675392377590000e-2 1.716774569320000e-2 1.759178901180000e-2
1.802630620040000e-2 1.847155596350000e-2 1.892780339580000e-2 1.939532013970000e-2
1.987438454720000e-2 2.036528184550000e-2 2.086830430710000e-2 2.138375142350000e-2
2.191193008360000e-2 2.245315475670000e-2 2.300774767920000e-2 2.357603904680000e-2
2.415836721130000e-2 2.475507888140000e-2 2.536652932980000e-2 2.599308260420000e-2
2.663511174460000e-2 2.729299900470000e-2 2.796713608010000e-2 2.865792434120000e-2
2.936577507250000e-2 3.009110971680000e-2 3.083436012680000e-2 3.159596882190000e-2
3.237638925180000e-2 3.317608606630000e-2 3.399553539220000e-2 3.483522511630000e-2
3.569565517670000e-2 3.657733785960000e-2 3.748079810470000e-2 3.840657381790000e-2
3.935521619120000e-2 4.032729003110000e-2 4.132337409490000e-2 4.234406143499999e-2
4.338995975250000e-2 4.446169175840000e-2 4.555989554480000e-2 4.668522496480000e-2
4.783835002140000e-2 4.901995726690000e-2 5.023075021140000e-2 5.147144974160000e-2
5.274279455029999e-2 5.404554157560000e-2 5.538046645260000e-2 5.674836397389999e-2
5.815004856410000e-2 5.958635476360000e-2 6.105813772630000e-2 6.256627372810000e-2
6.411166068920000e-2 6.569521870820000e-2 6.731789061030000e-2 6.898064250839999e-2
7.068446437839999e-2 7.243037064850000e-2 7.421940080349999e-2 7.605262000340001e-2
7.793111971749999e-2 7.985601837450000e-2 8.182846202830001e-2 8.384962504040001e-2
8.592071077890001e-2 8.804295233520000e-2 9.021761325780000e-2 9.244598830530000e-2
9.472940421650000e-2 9.706922050060001e-2 9.946683024699999e-2 1.019236609540000e-1
1.044411753800000e-1 1.070208724120000e-1 1.096642879600000e-1 1.123729958730000e-1
1.151486088710000e-1 1.179927795100000e-1 1.209072011640000e-1 1.238936090320000e-1
1.269537811760000e-1 1.300895395710000e-1 1.333027511980000e-1 1.365953291530000e-1
1.399692337830000e-1 1.434264738570000e-1 1.469691077610000e-1 1.505992447230000e-1
1.543190460680000e-1 1.581307265060000e-1 1.620365554500000e-1 1.660388583700000e-1
1.701400181720000e-1 1.743424766210000e-1 1.786487357930000e-1 1.830613595670000e-1
1.875829751480000e-1 1.922162746350000e-1 1.969640166180000e-1 2.018290278290000e-1
2.068142048160000e-1 2.119225156750000e-1 2.171570018120000e-1 2.225207797570000e-1
2.280170430170000e-1 2.336490639790000e-1 2.394201958600000e-1 2.453338746970000e-1
2.513936214020000e-1 2.576030438510000e-1 2.639658390340000e-1 2.704857952580000e-1
2.771667944010000e-1 2.840128142230000e-1 2.910279307340000e-1 2.982163206230000e-1
3.055822637430000e-1 3.131301456570000e-1 3.208644602550000e-1 3.287898124230000e-1
3.369109207900000e-1 3.452326205340000e-1 3.537598662610000e-1 3.624977349570000e-1
3.714514290110000e-1 3.806262793070000e-1 3.900277484060000e-1 3.996614337920000e-1
4.095330712070000e-1 4.196485380650000e-1 4.300138569560000e-1 4.406351992220000e-1
4.515188886430000e-1 4.626714051930000e-1 4.740993889010000e-1 4.858096438070000e-1
4.978091420090000e-1 5.101050278160000e-1 5.227046220030001e-1 5.356154261670000e-1
5.488451271930001e-1 5.624016018350000e-1 5.762929214000000e-1 5.905273565590000e-1
6.051133822660000e-1 6.200596828079999e-1 6.353751569729999e-1 6.510689233500000e-1
6.671503257570000e-1 6.836289388030000e-1 7.005145735919999e-1 7.178172835590000e-1
7.355473704630000e-1 7.537153905140000e-1 7.723321606600000e-1 7.914087650279999e-1
8.109565615239999e-1 8.309871885940000e-1 8.515125721520000e-1 8.725449326840000e-1
8.940967925210000e-1 9.161809832970000e-1 9.388106535839999e-1 9.619992767279999e-1
9.857606588630000e-1 1.010108947140000e0 1.035058638130000e0 1.060624586490000e0
1.086822013780000e0 1.113666517520000e0 1.141174080500000e0 1.169361080290000e0
1.198244298970000e0 1.227840933160000e0 1.258168604210000e0 1.289245368730000e0
1.321089729340000e0 1.353720645650000e0 1.387157545600000e0 1.421420336980000e0
1.456529419300000e0 1.492505695960000e0 1.529370586650000e0 1.567146040140000e0
1.605854547330000e0 1.645519154650000e0 1.686163477770000e0 1.727811715670000e0
1.770488665050000e0 1.814219735070000e0 1.859030962530000e0
</PP_RAB>
</PP_MESH>
<PP_LOCAL columns="4">
-1.572133387110000e1 -1.572133428310000e1 -1.572133456990000e1 -1.572133472870000e1
-1.572133475660000e1 -1.572133465020000e1 -1.572133440630000e1 -1.572133402100000e1
-1.572133349040000e1 -1.572133281020000e1 -1.572133197600000e1 -1.572133098280000e1
-1.572132982560000e1 -1.572132849880000e1 -1.572132699670000e1 -1.572132531310000e1
-1.572132344150000e1 -1.572132137480000e1 -1.572131910580000e1 -1.572131662660000e1
-1.572131392920000e1 -1.572131100460000e1 -1.572130784390000e1 -1.572130443720000e1
-1.572130077430000e1 -1.572129684430000e1 -1.572129263600000e1 -1.572128813710000e1
-1.572128333510000e1 -1.572127821650000e1 -1.572127276720000e1 -1.572126697230000e1
-1.572126081620000e1 -1.572125428230000e1 -1.572124735320000e1 -1.572124001070000e1
-1.572123223540000e1 -1.572122400700000e1 -1.572121530420000e1 -1.572120610440000e1
-1.572119638390000e1 -1.572118611770000e1 -1.572117527970000e1 -1.572116384210000e1
-1.572115177590000e1 -1.572113905040000e1 -1.572112563340000e1 -1.572111149110000e1
-1.572109658760000e1 -1.572108088550000e1 -1.572106434510000e1 -1.572104692490000e1
-1.572102858110000e1 -1.572100926740000e1 -1.572098893540000e1 -1.572096753390000e1
-1.572094500910000e1 -1.572092130440000e1 -1.572089636010000e1 -1.572087011330000e1
-1.572084249790000e1 -1.572081344420000e1 -1.572078287870000e1 -1.572075072410000e1
-1.572071689890000e1 -1.572068131710000e1 -1.572064388830000e1 -1.572060451700000e1
-1.572056310260000e1 -1.572051953910000e1 -1.572047371450000e1 -1.572042551090000e1
-1.572037480370000e1 -1.572032146160000e1 -1.572026534600000e1 -1.572020631040000e1
-1.572014420030000e1 -1.572007885260000e1 -1.572001009460000e1 -1.571993774440000e1
-1.571986160920000e1 -1.571978148560000e1 -1.571969715810000e1 -1.571960839910000e1
-1.571951496750000e1 -1.571941660820000e1 -1.571931305130000e1 -1.571920401040000e1
-1.571908918270000e1 -1.571896824670000e1 -1.571884086190000e1 -1.571870666680000e1
-1.571856527820000e1 -1.571841628880000e1 -1.571825926670000e1 -1.571809375240000e1
-1.571791925790000e1 -1.571773526420000e1 -1.571754121920000e1 -1.571733653520000e1
-1.571712058650000e1 -1.571689270650000e1 -1.571665218470000e1 -1.571639826350000e1
-1.571613013450000e1 -1.571584693490000e1 -1.571554774340000e1 -1.571523157510000e1
-1.571489737750000e1 -1.571454402450000e1 -1.571417031100000e1 -1.571377494660000e1
-1.571335654860000e1 -1.571291363490000e1 -1.571244461580000e1 -1.571194778540000e1
-1.571142131180000e1 -1.571086322730000e1 -1.571027141650000e1 -1.570964360440000e1
-1.570897734310000e1 -1.570826999690000e1 -1.570751872700000e1 -1.570672047350000e1
-1.570587193720000e1 -1.570496955850000e1 -1.570400949560000e1 -1.570298759930000e1
-1.570189938720000e1 -1.570074001400000e1 -1.569950423990000e1 -1.569818639620000e1
-1.569678034760000e1 -1.569527945070000e1 -1.569367650950000e1 -1.569196372630000e1
-1.569013264830000e1 -1.568817410940000e1 -1.568607816670000e1 -1.568383403170000e1
-1.568142999450000e1 -1.567885334180000e1 -1.567609026760000e1 -1.567312577590000e1
-1.566994357460000e1 -1.566652596000000e1 -1.566285369200000e1 -1.565890585730000e1
-1.565465972150000e1 -1.565009056840000e1 -1.564517152540000e1 -1.563987337440000e1
-1.563416434700000e1 -1.562800990220000e1 -1.562137248670000e1 -1.561421127520000e1
-1.560648189030000e1 -1.559813610080000e1 -1.558912149610000e1 -1.557938113630000e1
-1.556885317670000e1 -1.555747046460000e1 -1.554516010830000e1 -1.553184301640000e1
-1.551743340630000e1 -1.550183828240000e1 -1.548495688150000e1 -1.546668008710000e1
-1.544688981120000e1 -1.542545834550000e1 -1.540224768160000e1 -1.537710880420000e1
-1.534988095760000e1 -1.532039089160000e1 -1.528845208940000e1 -1.525386398510000e1
-1.521641117840000e1 -1.517586265560000e1 -1.513197102830000e1 -1.508447180540000e1
-1.503308271250000e1 -1.497750308140000e1 -1.491741333060000e1 -1.485247456400000e1
-1.478232832060000e1 -1.470659650830000e1 -1.462488156380000e1 -1.453676688420000e1
-1.444181758060000e1 -1.433958161130000e1 -1.422959135700000e1 -1.411136570640000e1
-1.398441272510000e1 -1.384823298790000e1 -1.370232365620000e1 -1.354618338540000e1
-1.337931815130000e1 -1.320124807810000e1 -1.301151535240000e1 -1.280969329540000e1
-1.259539665690000e1 -1.236829317640000e1 -1.212811643210000e1 -1.187467997110000e1
-1.160789267480000e1 -1.132777526430000e1 -1.103447779830000e1 -1.072829794670000e1
-1.040969974800000e1 -1.007933247030000e1 -9.738049103170001e0 -9.386923899239999e0
-9.027268275999999e0 -8.660644269050000e0 -8.288874608930000e0 -7.914048370100000e0
-7.538521017160000e0 -7.164907548680000e0 -6.796067311590000e0 -6.435078926450000e0
-6.085203620900000e0 -5.749835112750000e0 -5.432434012990000e0 -5.136444544740000e0
-4.865129166800000e0 -4.621590143180000e0 -4.408554375000000e0 -4.228132593440000e0
-4.081659245640000e0 -3.969464725740000e0 -3.890630360280000e0 -3.842740855470000e0
-3.821660800100000e0 -3.821379374320000e0 -3.833992242670000e0 -3.849923365310000e0
-3.858533815070000e0 -3.849321513860000e0 -3.813987876100000e0 -3.749739881720000e0
-3.664319047360000e0 -3.575992043870000e0 -3.489794128890000e0 -3.405673981550000e0
-3.323581518050000e0 -3.243467861860000e0 -3.165285314590000e0 -3.088987327600000e0
-3.014528474290000e0 -2.941864423040000e0 -2.870951910840000e0 -2.801748717520000e0
-2.734213640590000e0 -2.668306470770000e0 -2.603987967960000e0 -2.541219837960000e0
-2.479964709630000e0 -2.420186112650000e0 -2.361848455790000e0 -2.304917005750000e0
-2.249357866450000e0 -2.195137958860000e0 -2.142225001330000e0 -2.090587490320000e0
-2.040194681680000e0 -1.991016572350000e0 -1.943023882450000e0 -1.896188037910000e0
-1.850481153420000e0 -1.805876015830000e0 -1.762346067950000e0 -1.719865392750000e0
-1.678408697910000e0 -1.637951300790000e0 -1.598469113680000e0 -1.559938629530000e0
-1.522336907900000e0 -1.485641561340000e0 -1.449830742010000e0 -1.414883128730000e0
-1.380777914250000e0 -1.347494792860000e0 -1.315013948340000e0 -1.283316042100000e0
-1.252382201720000e0 -1.222194009680000e0 -1.192733492420000e0 -1.163983109610000e0
-1.135925743740000e0 -1.108544689900000e0 -1.081823645850000e0 -1.055746702300000e0
-1.030298333460000e0 -1.005463387780000e0 -9.812270789350000e-1 -9.575749770030001e-1
-9.344929999050001e-1 -9.119674050020000e-1 -8.899847809130000e-1 -8.685320395369999e-1
-8.475964082530000e-1 -8.271654223210000e-1 -8.072269174599999e-1 -7.877690226020000e-1
-7.687801528270000e-1 -7.502490024660000e-1 -7.321645383680000e-1 -7.145159933330000e-1
-6.972928596990000e-1 -6.804848830859999e-1 -6.640820562960000e-1 -6.480746133460000e-1
-6.324530236619999e-1 -6.172079863980001e-1 -6.023304249030001e-1 -5.878114813140000e-1
-5.736425112850000e-1 -5.598150788380000e-1 -5.463209513400001e-1 -5.331520946029999e-1
-5.203006681010000e-1 -5.077590203000000e-1 -4.955196841019999e-1 -4.835753724040000e-1
-4.719189737520000e-1 -4.605435481140000e-1 -4.494423227420000e-1 -4.386086881450000e-1
-4.280361941500000e-1 -4.177185460620000e-1 -4.076496009190000e-1 -3.978233638320000e-1
-3.882339844170000e-1 -3.788757533110000e-1 -3.697430987710000e-1 -3.608305833620000e-1
-3.521329007140000e-1 -3.436448723670000e-1 -3.353614446830000e-1 -3.272776858430000e-1
-3.193887829050000e-1 -3.116900389430000e-1 -3.041768702480000e-1 -2.968448035990000e-1
-2.896894736010000e-1 -2.827066200850000e-1 -2.758920855710000e-1 -2.692418127950000e-1
-2.627518422910000e-1 -2.564183100330000e-1 -2.502374451380000e-1 -2.442055676180000e-1
-2.383190861890000e-1 -2.325744961350000e-1 -2.269683772170000e-1 -2.214973916440000e-1
-2.161582820760000e-1 -2.109478696950000e-1 -2.058630523030000e-1 -2.009008024820000e-1
-1.960581657870000e-1 -1.913322589900000e-1 -1.867202683610000e-1 -1.822194479960000e-1
-1.778271181770000e-1 -1.735406637810000e-1 -1.693575327230000e-1 -1.652752344330000e-1
-1.612913383750000e-1 -1.574034726020000e-1 -1.536093223400000e-1 -1.499066286130000e-1
-1.462931868970000e-1 -1.427668458050000e-1 -1.393255058120000e-1 -1.359671179970000e-1
-1.326896828310000e-1 -1.294912489810000e-1 -1.263699121510000e-1 -1.233238139470000e-1
-1.203511407700000e-1 -1.174501227380000e-1 -1.146190326320000e-1 -1.118561848660000e-1
-1.091599344840000e-1 -1.065286761820000e-1 -1.039608433520000e-1 -1.014549071450000e-1
-9.900937556860001e-2 -9.662279259160000e-2 -9.429373728080000e-2 -9.202082295380000e-2
-8.980269635389998e-2 -8.763803684389998e-2 -8.552555561999998e-2 -8.346399494490001e-2
-8.145212739820000e-2 -7.948875514610000e-2 -7.757270922810000e-2 -7.570284886130001e-2
-7.387806076050001e-2 -7.209725847610001e-2 -7.035938174700000e-2 -6.866339586900000e-2
-6.700829107930000e-2 -6.539308195500000e-2 -6.381680682640000e-2 -6.227852720450000e-2
-6.077732722209999e-2 -5.931231308880001e-2 -5.788261255860000e-2 -5.648737441070000e-2
-5.512576794250000e-2 -5.379698247530000e-2 -5.250022687160000e-2
</PP_LOCAL>
<PP_NONLOCAL>
<PP_DIJ>
6.931764817537057e-310
</PP_DIJ>
</PP_NONLOCAL>
<PP_PSWFC>
<PP_CHI.1 index="1" label="s " l="0" occupation="2.000000000000e0" n="0" pseudo_energy="0.000000000000e0" cutoff_radius="6.931764817515e-310" ultrasoft_cutoff_radius="6.931764817515e-310">
9.275091593959999e-3 9.504186356329999e-3 9.738939759330002e-3 9.979491571380001e-3
1.022598473240000e-2 1.047856537120000e-2 1.073738393500000e-2 1.100259440820000e-2
1.127435460180000e-2 1.155282621960000e-2 1.183817495380000e-2 1.213057058310000e-2
1.243018707330000e-2 1.273720268010000e-2 1.305180005450000e-2 1.337416635100000e-2
1.370449333780000e-2 1.404297751060000e-2 1.438982020820000e-2 1.474522773180000e-2
1.510941146640000e-2 1.548258800540000e-2 1.586497927880000e-2 1.625681268340000e-2
1.665832121710000e-2 1.706974361600000e-2 1.749132449460000e-2 1.792331448990000e-2
1.836597040850000e-2 1.881955537760000e-2 1.928433899910000e-2 1.976059750780000e-2
2.024861393350000e-2 2.074867826610000e-2 2.126108762590000e-2 2.178614643670000e-2
2.232416660370000e-2 2.287546769570000e-2 2.344037713060000e-2 2.401923036690000e-2
2.461237109790000e-2 2.522015145150000e-2 2.584293219470000e-2 2.648108294220000e-2
2.713498237000000e-2 2.780501843470000e-2 2.849158859640000e-2 2.919510004800000e-2
2.991596994900000e-2 3.065462566450000e-2 3.141150501060000e-2 3.218705650350000e-2
3.298173961599999e-2 3.379602503870000e-2 3.463039494660000e-2 3.548534327280000e-2
3.636137598690000e-2 3.725901137990000e-2 3.817878035530000e-2 3.912122672660000e-2
4.008690751990001e-2 4.107639328430000e-2 4.209026840780000e-2 4.312913144000000e-2
4.419359542090000e-2 4.528428821680000e-2 4.640185286219999e-2 4.754694790930000e-2
4.872024778270000e-2 4.992244314240000e-2 5.115424125220001e-2 5.241636635529999e-2
5.370956005670000e-2 5.503458171190000e-2 5.639220882250000e-2 5.778323743810000e-2
5.920848256419999e-2 6.066877857749999e-2 6.216497964640000e-2 6.369796015790000e-2
6.526861515040000e-2 6.687786075200000e-2 6.852663462420000e-2 7.021589641089999e-2
7.194662819180000e-2 7.371983494110000e-2 7.553654498869999e-2 7.739781048720000e-2
7.930470787940001e-2 8.125833837090001e-2 8.325982840240000e-2 8.531033012520000e-2
8.741102187509998e-2 8.956310864810002e-2 9.176782257299999e-2 9.402642338290001e-2
9.634019888259999e-2 9.871046541170001e-2 1.011385683020000e-1 1.036258823260000e-1
1.061738121400000e-1 1.087837927100000e-1 1.114572897350000e-1 1.141958000430000e-1
1.170008519830000e-1 1.198740057850000e-1 1.228168539120000e-1 1.258310213740000e-1