<UPF version="2.0.1">
<PP_INFO>
Generated by new atomic code, or converted to UPF format
Author:
Generation date:
Pseudopotential type: NC
Element: I
Functional: SLA  PW   PBE  PBE
Suggested minimum cutoff for wavefunctions:   0. Ry
Suggested minimum cutoff for charge density:   0. Ry
The Pseudo was generated with a Scalar-Relativistic Calculation
L component and cutoff radius for Local Potential:  0   0.0000
Valence configuration:
nl pn  l   occ       Rcut    Rcut US       E pseu
5S  0  0  2.00      0.000      0.000     0.000000
5P  0  1  5.00      0.000      0.000     0.000000
5D  0  2  0.00      0.000      0.000     0.000000
Generation configuration: not available.
</PP_INFO>
<!--
END OF HUMAN READABLE SECTION
-->
<PP_HEADER generated="Generated by new atomic code, or converted to UPF format" author="" date="" comment="" element="I " pseudo_type="NC" relativistic="scalar" is_ultrasoft="false" is_paw="false" is_coulomb="false" has_so="false" has_wfc="false" has_gipaw="false" paw_as_gipaw="false" core_correction="false" functional="SLA  PW   PBE  PBE" z_valence="7.000000000000e0" total_psenergy="0.000000000000e0" wfc_cutoff="0.000000000000e0" rho_cutoff="0.000000000000e0" l_max="2" l_max_rho="0" l_local="0" mesh_size="551" number_of_wfc="3" number_of_proj="2"/>
<PP_MESH dx="2.440000000001e-2" mesh="551" xmin="-5.075170000003e0" rmax="7.940315368730e1" zmesh="5.300000000000e1">
<PP_R>
1.179249782120000e-4 1.208377388500000e-4 1.238224450140000e-4 1.268808737650000e-4
1.300148460620000e-4 1.332262278380000e-4 1.365169311160000e-4 1.398889151470000e-4
1.433441875740000e-4 1.468848056310000e-4 1.505128773640000e-4 1.542305628910000e-4
1.580400756800000e-4 1.619436838780000e-4 1.659437116510000e-4 1.700425405730000e-4
1.742426110460000e-4 1.785464237460000e-4 1.829565411190000e-4 1.874755889020000e-4
1.921062576900000e-4 1.968513045340000e-4 2.017135545850000e-4 2.066959027760000e-4
2.118013155460000e-4 2.170328326030000e-4 2.223935687380000e-4 2.278867156770001e-4
2.335155439830000e-4 2.392834050000000e-4 2.451937328540000e-4 2.512500464910000e-4
2.574559517770000e-4 2.638151436440000e-4 2.703314082870000e-4 2.770086254230000e-4
2.838507705960000e-4 2.908619175479999e-4 2.980462406430000e-4 3.054080173520001e-4
3.129516308000000e-4 3.206815723740000e-4 3.286024444020000e-4 3.367189628870000e-4
3.450359603199999e-4 3.535583885550000e-4 3.622913217550000e-4 3.712399594180000e-4
3.804096294690000e-4 3.898057914340000e-4 3.994340396890000e-4 4.093001067920000e-4
4.194098668970001e-4 4.297693392490000e-4 4.403846917699999e-4 4.512622447290000e-4
4.624084745070000e-4 4.738300174540000e-4 4.855336738360000e-4 4.975264118880000e-4
5.098153719610000e-4 5.224078707729999e-4 5.353114057649999e-4 5.485336595690001e-4
5.620825045750001e-4 5.759660076240001e-4 5.901924348080000e-4 6.047702563930000e-4
6.197081518630000e-4 6.350150150819999e-4 6.506999595989999e-4 6.667723240640000e-4
6.832416777950002e-4 7.001178264730000e-4 7.174108179810000e-4 7.351309483850001e-4
7.532887680650000e-4 7.718950879960000e-4 7.909609861879998e-4 8.104978142760000e-4
8.305172042840001e-4 8.510310755460001e-4 8.720516418079999e-4 8.935914184940000e-4
9.156632301619998e-4 9.382802181389998e-4 9.614558483410001e-4 9.852039192970000e-4
1.009538570360000e-3 1.034474290130000e-3 1.060025925060000e-3 1.086208688340000e-3
1.113038168920000e-3 1.140530340770000e-3 1.168701572460000e-3 1.197568636830000e-3
1.227148721050000e-3 1.257459436770000e-3 1.288518830690000e-3 1.320345395240000e-3
1.352958079620000e-3 1.386376301100000e-3 1.420619956510000e-3 1.455709434190000e-3
1.491665626040000e-3 1.528509939990000e-3 1.566264312770000e-3 1.604951222940000e-3
1.644593704280000e-3 1.685215359500000e-3 1.726840374320000e-3 1.769493531830000e-3
1.813200227280000e-3 1.857986483170000e-3 1.903878964780000e-3 1.950904996010000e-3
1.999092575660000e-3 2.048470394110000e-3 2.099067850410000e-3 2.150915069750000e-3
2.204042921420000e-3 2.258483037190000e-3 2.314267830130000e-3 2.371430513920000e-3
2.430005122630000e-3 2.490026530980000e-3 2.551530475060000e-3 2.614553573700000e-3
2.679133350190000e-3 2.745308254640000e-3 2.813117686910000e-3 2.882602020020000e-3
2.953802624220000e-3 3.026761891590000e-3 3.101523261330000e-3 3.178131245580000e-3
3.256631455920000e-3 3.337070630560000e-3 3.419496662140000e-3 3.503958626260000e-3
3.590506810690000e-3 3.679192745310000e-3 3.770069232800000e-3 3.863190380080000e-3
3.958611630480000e-3 4.056389796850000e-3 4.156583095259999e-3 4.259251179750000e-3
4.364455177850001e-3 4.472257726900000e-3 4.582723011410001e-3 4.695916801260000e-3
4.811906490840000e-3 4.930761139209999e-3 5.052551511180000e-3 5.177350119460000e-3
5.305231267840000e-3 5.436271095410000e-3 5.570547621920000e-3 5.708140794210000e-3
5.849132533810000e-3 5.993606785730000e-3 6.141649568430000e-3 6.293349025029999e-3
6.448795475800001e-3 6.608081471929999e-3 6.771301850639999e-3 6.938553791630000e-3
7.109936874960000e-3 7.285553140330001e-3 7.465507147809999e-3 7.649906040150000e-3
7.838859606519999e-3 8.032480347890001e-3 8.230883544020001e-3 8.434187322109999e-3
8.642512727100000e-3 8.855983793740002e-3 9.074727620500001e-3 9.298874445139999e-3
9.528557722340000e-3 9.763914203129998e-3 1.000508401630000e-2 1.025221075180000e-2
1.050544154630000e-2 1.076492717090000e-2 1.103082212040000e-2 1.130328470610000e-2
1.158247714920000e-2 1.186856567800000e-2 1.216172062660000e-2 1.246211653650000e-2
1.276993226030000e-2 1.308535106800000e-2 1.340856075690000e-2 1.373975376270000e-2
1.407912727400000e-2 1.442688335050000e-2 1.478322904230000e-2 1.514837651410000e-2
1.552254317080000e-2 1.590595178730000e-2 1.629883064110000e-2 1.670141364820000e-2
1.711394050220000e-2 1.753665681730000e-2 1.796981427440000e-2 1.841367077100000e-2
1.886849057450000e-2 1.933454447990000e-2 1.981210997090000e-2 2.030147138480000e-2
2.080292008240000e-2 2.131675462100000e-2 2.184328093230000e-2 2.238281250450000e-2
2.293567056910000e-2 2.350218429210000e-2 2.408269096970000e-2 2.467753622960000e-2
2.528707423630000e-2 2.591166790260000e-2 2.655168910480000e-2 2.720751890490000e-2
2.787954777720000e-2 2.856817584050000e-2 2.927381309690000e-2 2.999687967530000e-2
3.073780608210000e-2 3.149703345700000e-2 3.227501383620001e-2 3.307221042100000e-2
3.388909785380001e-2 3.472616250100000e-2 3.558390274200000e-2 3.646282926650000e-2
3.736346537800000e-2 3.828634730600000e-2 3.923202452460000e-2 4.020106008010000e-2
4.119403092630000e-2 4.221152826750000e-2 4.325415791110000e-2 4.432254062780000e-2
4.541731252150000e-2 4.653912540790000e-2 4.768864720270000e-2 4.886656231910000e-2
5.007357207560000e-2 5.131039511299999e-2 5.257776782280001e-2 5.387644478560000e-2
5.520719921990001e-2 5.657082344319999e-2 5.796812934280000e-2 5.939994886030000e-2
6.086713448580000e-2 6.237055976650000e-2 6.391111982600001e-2 6.548973189760000e-2
6.710733587040001e-2 6.876489484900000e-2 7.046339572660000e-2 7.220384977280001e-2
7.398729323580000e-2 7.581478795920001e-2 7.768742201410000e-2 7.960631034750000e-2
8.157259544510000e-2 8.358744801280000e-2 8.565206767250000e-2 8.776768367720001e-2
8.993555564260001e-2 9.215697429699999e-2 9.443326224980000e-2 9.676577477890000e-2
9.915590063809999e-2 1.016050628830000e-1 1.041147197200000e-1 1.066863653710000e-1
1.093215309680000e-1 1.120217854620000e-1 1.147887365540000e-1 1.176240316590000e-1
1.205293588820000e-1 1.235064480250000e-1 1.265570716140000e-1 1.296830459600000e-1
1.328862322350000e-1 1.361685375820000e-1 1.395319162520000e-1 1.429783707650000e-1
1.465099531050000e-1 1.501287659370000e-1 1.538369638670000e-1 1.576367547150000e-1
1.615304008380000e-1 1.655202204720000e-1 1.696085891130000e-1 1.737979409340000e-1
1.780907702310000e-1 1.824896329090000e-1 1.869971480050000e-1 1.916159992480000e-1
1.963489366510000e-1 2.011987781570000e-1 2.061684113110000e-1 2.112607949800000e-1
2.164789611170000e-1 2.218260165620000e-1 2.273051448960000e-1 2.329196083360000e-1
2.386727496740000e-1 2.445679942710000e-1 2.506088520920000e-1 2.567989198020000e-1
2.631418829030000e-1 2.696415179280000e-1 2.763016946910000e-1 2.831263785940000e-1
2.901196329800000e-1 2.972856215600000e-1 3.046286108890000e-1 3.121529729060000e-1
3.198631875380000e-1 3.277638453660000e-1 3.358596503580000e-1 3.441554226720000e-1
3.526561015240000e-1 3.613667481300000e-1 3.702925487170000e-1 3.794388176140000e-1
3.888110004130000e-1 3.984146772150000e-1 4.082555659470001e-1 4.183395257720000e-1
4.286725605740000e-1 4.392608225340000e-1 4.501106157930000e-1 4.612284002030000e-1
4.726207951780000e-1 4.842945836290000e-1 4.962567160090000e-1 5.085143144470000e-1
5.210746769870001e-1 5.339452819390001e-1 5.471337923250000e-1 5.606480604480000e-1
5.744961325600000e-1 5.886862536600001e-1 6.032268723960001e-1 6.181266461020000e-1
6.333944459460001e-1 6.490393622170000e-1 6.650707097340000e-1 6.814980333939999e-1
6.983311138530000e-1 7.155799733519999e-1 7.332548816809999e-1 7.513663622959999e-1
7.699251985820000e-1 7.889424402770000e-1 8.084294100470000e-1 8.283977102300000e-1
8.488592297429999e-1 8.698261511620000e-1 8.913109579710000e-1 9.133264420000000e-1
9.358857110380001e-1 9.590021966370001e-1 9.826896621109999e-1 1.006962210730000e0
1.031834294110000e0 1.057320720840000e0 1.083436665270000e0 1.110197676550000e0
1.137619687910000e0 1.165719026130000e0 1.194512421270000e0 1.224017016600000e0
1.254250378870000e0 1.285230508680000e0 1.316975851300000e0 1.349505307560000e0
1.382838245160000e0 1.416994510180000e0 1.451994438920000e0 1.487858869950000e0
1.524609156590000e0 1.562267179570000e0 1.600855360080000e0 1.640396673130000e0
1.680914661190000e0 1.722433448260000e0 1.764977754190000e0 1.808572909410000e0
1.853244870010000e0 1.899020233230000e0 1.945926253220000e0 1.993990857350000e0
2.043242662770000e0 2.093710993500000e0 2.145425897850000e0 2.198418166340000e0
2.252719350000000e0 2.308361779200000e0 2.365378582850000e0 2.423803708160000e0
2.483671940850000e0 2.545018925820000e0 2.607881188440000e0 2.672296156240000e0
2.738302181210000e0 2.805938562650000e0 2.875245570560000e0 2.946264469600000e0
3.019037543680000e0 3.093608121130000e0 3.170020600500000e0 3.248320476960000e0
3.328554369460000e0 3.410770048400000e0 3.495016464150000e0 3.581343776140000e0
3.669803382750000e0 3.760447951890000e0 3.853331452410000e0 3.948509186170000e0
4.046037820980000e0 4.145975424390000e0 4.248381498180000e0 4.353317013880000e0
4.460844448990000e0 4.571027824210000e0 4.683932741580000e0 4.799626423500000e0
4.918177752780000e0 5.039657313650000e0 5.164137433750000e0 5.291692227260000e0
5.422397638960000e0 5.556331489490000e0 5.693573521660000e0 5.834205447940000e0
5.978310999110000e0 6.125975974100000e0 6.277288291110000e0 6.432338039880000e0
6.591217535440000e0 6.754021372960000e0 6.920846484150000e0 7.091792194930000e0
7.266960284600000e0 7.446455046390000e0 7.630383349620000e0 7.818854703260000e0
8.011981321200000e0 8.209878188999999e0 8.412663132380001e0 8.620456887380000e0
8.833383172230000e0 9.051568761010000e0 9.275143559140000e0 9.504240680700001e0
9.738996527739999e0 9.979550871430000e0 1.022604693530000e1 1.047863148050000e1
1.073745489330000e1 1.100267127440000e1 1.127443853090000e1 1.155291847020000e1
1.183827689620000e1 1.213068370840000e1 1.243031300280000e1 1.273734317560000e1
1.305195702920000e1 1.337434188150000e1 1.370468967700000e1 1.404319710140000e1
1.439006569840000e1 1.474550199000000e1 1.510971759920000e1 1.548292937620000e1
1.586535952740000e1 1.625723574760000e1 1.665879135600000e1 1.707026543440000e1
1.749190297030000e1 1.792395500230000e1 1.836667876950000e1 1.882033786510000e1
1.928520239300000e1 1.976154912870000e1 2.024966168400000e1 2.074983067590000e1
2.126235390000000e1 2.178753650720000e1 2.232569118570000e1 2.287713834710000e1
2.344220631740000e1 2.402123153210000e1 2.461455873670000e1 2.522254119210000e1
2.584554088460000e1 2.648392874190000e1 2.713808485320000e1 2.780839869630000e1
2.849526936910000e1 2.919910582720000e1 2.992032712740000e1 3.065936267730000e1
3.141665249110000e1 3.219264745110000e1 3.298780957660000e1 3.380261229880000e1
3.463754074270000e1 3.549309201600000e1 3.636977550500000e1 3.726811317790000e1
3.818863989540001e1 3.913190372960000e1 4.009846629000000e1 4.108890305760000e1
4.210380372830000e1 4.314377256320000e1 4.420942874900000e1 4.530140676620000e1
4.642035676700000e1 4.756694496260000e1 4.874185401960000e1 4.994578346660000e1
5.117945011050001e1 5.244358846360001e1 5.373895118070000e1 5.506630950700000e1
5.642645373800001e1 5.782019368920000e1 5.924835917890000e1 6.071180052170000e1
6.221138903550000e1 6.374801755940000e1 6.532260098610000e1 6.693607680610000e1
6.858940566590000e1 7.028357194030001e1 7.201958431810001e1 7.379847640300000e1
7.562130732870000e1 7.748916238970001e1 7.940315368730001e1
</PP_R>
<PP_RAB>
2.877369468380000e-6 2.948440827950000e-6 3.021267658330000e-6 3.095893319880000e-6
3.172362243909999e-6 3.250719959240000e-6 3.331013119230001e-6 3.413289529579999e-6
3.497598176800000e-6 3.583989257390000e-6 3.672514207690000e-6 3.763225734530000e-6
3.856177846600000e-6 3.951425886620000e-6 4.049026564280000e-6 4.149037989990000e-6
4.251519709510000e-6 4.356532739390000e-6 4.464139603290000e-6 4.574404369210000e-6
4.687392687630000e-6 4.803171830620000e-6 4.921810731870001e-6 5.043380027739999e-6
5.167952099320000e-6 5.295601115510000e-6 5.426403077200001e-6 5.560435862520001e-6
5.697779273179999e-6 5.838515082010000e-6 5.982727081640000e-6 6.130501134379999e-6
6.281925223369999e-6 6.437089504909999e-6 6.596086362199999e-6 6.759010460310000e-6
6.925958802540000e-6 7.097030788179999e-6 7.272328271700000e-6 7.451955623400000e-6
7.636019791510002e-6 7.824630365929998e-6 8.017899643400000e-6 8.215942694449998e-6
8.418877431820002e-6 8.626824680739999e-6 8.839908250820001e-6 9.058255009799998e-6
9.281994959039999e-6 9.511261310980000e-6 9.746190568399998e-6 9.986922605729999e-6
1.023360075230000e-5 1.048637187770000e-5 1.074538647920000e-5 1.101079877140000e-5
1.128276677800000e-5 1.156145242590000e-5 1.184702164160000e-5 1.213964445010000e-5
1.243949507580000e-5 1.274675204690000e-5 1.306159830070000e-5 1.338422129350000e-5
1.371481311160000e-5 1.405357058600000e-5 1.440069540930000e-5 1.475639425600000e-5
1.512087890540000e-5 1.549436636800000e-5 1.587707901420000e-5 1.626924470720000e-5
1.667109693820000e-5 1.708287496600000e-5 1.750482395870000e-5 1.793719514060000e-5
1.838024594080000e-5 1.883424014710000e-5 1.929944806300000e-5 1.977614666830000e-5
2.026461978450000e-5 2.076515824329999e-5 2.127806006010000e-5 2.180363061130000e-5
2.234218281600000e-5 2.289403732260000e-5 2.345952269950000e-5 2.403897563080000e-5
2.463274111680000e-5 2.524117267910000e-5 2.586463257150000e-5 2.650349199560000e-5
2.715813132150000e-5 2.782894031480000e-5 2.851631836790001e-5 2.922067473870000e-5
2.994242879350000e-5 3.068201025720001e-5 3.143985946880000e-5 3.221642764380000e-5
3.301217714280000e-5 3.382758174670000e-5 3.466312693890000e-5 3.551931019430000e-5
3.639664127530001e-5 3.729564253580000e-5 3.821684923170000e-5 3.916080983980001e-5
4.012808638440001e-5 4.111925477180000e-5 4.213490513340000e-5 4.317564217660000e-5
4.424208554549999e-5 4.533487018940000e-5 4.645464674060000e-5 4.760208190249999e-5
4.877785884600000e-5 4.998267761640001e-5 5.121725555010000e-5 5.248232770200000e-5
5.377864728270000e-5 5.510698610740000e-5 5.646813505509999e-5 5.786290453970000e-5
5.929212499230000e-5 6.075664735580001e-5 6.225734359160001e-5 6.379510719839999e-5
6.537085374460001e-5 6.698552141330000e-5 6.864007156060001e-5 7.033548928849999e-5
7.207278403090001e-5 7.385299015490001e-5 7.567716757660001e-5 7.754640239209999e-5
7.946180752440000e-5 8.142452338560002e-5 8.343571855620000e-5 8.549659048070001e-5
8.760836618080001e-5 8.977230298559999e-5 9.198968928040001e-5 9.426184527379998e-5
9.659012378380002e-5 9.897591104299998e-5 1.014206275240000e-4 1.039257287860000e-4
1.064927063400000e-4 1.091230885360000e-4 1.118184414780000e-4 1.145803699510000e-4
1.174105183770000e-4 1.203105717970000e-4 1.232822568730000e-4 1.263273429150000e-4
1.294476429350000e-4 1.326450147280000e-4 1.359213619750000e-4 1.392786353790000e-4
1.427188338250000e-4 1.462440055720000e-4 1.498562494700000e-4 1.535577162110000e-4
1.573506096100000e-4 1.612371879150000e-4 1.652197651560000e-4 1.693007125160000e-4
1.734824597490000e-4 1.777674966240000e-4 1.821583744070000e-4 1.866577073800000e-4
1.912681743990000e-4 1.959925204880000e-4 2.008335584740000e-4 2.057941706600000e-4
2.108773105410000e-4 2.160860045670000e-4 2.214233539400000e-4 2.268925364610000e-4
2.324968084250000e-4 2.382395065560000e-4 2.441240499970000e-4 2.501539423440000e-4
2.563327737310000e-4 2.626642229690000e-4 2.691520597380000e-4 2.758001468280000e-4
2.826124424390000e-4 2.895930025430000e-4 2.967459832899999e-4 3.040756434920000e-4
3.115863471500000e-4 3.192825660600001e-4 3.271688824700000e-4 3.352499918090000e-4
3.435307054860000e-4 3.520159537520000e-4 3.607107886330000e-4 3.696203869450000e-4
3.787500533679999e-4 3.881052236110000e-4 3.976914676430000e-4 4.075144930150000e-4
4.175801482530001e-4 4.278944263420001e-4 4.384634682960000e-4 4.492935668129999e-4
4.603911700179999e-4 4.717628853100001e-4 4.834154832890000e-4 4.953559017890000e-4
5.075912500099999e-4 5.201288127520001e-4 5.329760547469999e-4 5.461406251100000e-4
5.596303618869999e-4 5.734532967270000e-4 5.876176596610000e-4 6.021318840010000e-4
6.170046113670001e-4 6.322446968220000e-4 6.478612141569999e-4 6.638634612800000e-4
6.802609657630000e-4 6.970634905090001e-4 7.142810395639999e-4 7.319238640780000e-4
7.500024684030000e-4 7.685276163519999e-4 7.875103376030000e-4 8.069619342709998e-4
8.268939876329998e-4 8.473183650239999e-4 8.682472269050001e-4 8.896930341019999e-4
9.116685552240000e-4 9.341868742660001e-4 9.572613983990001e-4 9.809058659550001e-4
1.005134354600000e-3 1.029961289730000e-3 1.055401453030000e-3 1.081469991320000e-3
1.108182425520000e-3 1.135554659950000e-3 1.163602991750000e-3 1.192344120590000e-3
1.221795158640000e-3 1.251973640760000e-3 1.282897534880000e-3 1.314585252770000e-3
1.347055660970000e-3 1.380328092010000e-3 1.414422355960000e-3 1.449358752190000e-3
1.485158081450000e-3 1.521841658300000e-3 1.559431323750000e-3 1.597949458300000e-3
1.637418995240000e-3 1.677863434320000e-3 1.719306855730000e-3 1.761773934460000e-3
1.805289954950000e-3 1.849880826200000e-3 1.895573097150000e-3 1.942393972480000e-3
1.990371328860000e-3 2.039533731510000e-3 2.089910451210000e-3 2.141531481720000e-3
2.194427557680000e-3 2.248630172850000e-3 2.304171598890000e-3 2.361084904610000e-3
2.419403975570000e-3 2.479163534350000e-3 2.540399161160000e-3 2.603147315060000e-3
2.667445355630000e-3 2.733331565260000e-3 2.800845171920000e-3 2.870026372480000e-3
2.940916356720000e-3 3.013557331800000e-3 3.087992547380000e-3 3.164266321420000e-3
3.242424066530000e-3 3.322512317000000e-3 3.404578756550000e-3 3.488672246670000e-3
3.574842855750000e-3 3.663141888870000e-3 3.753621918350000e-3 3.846336815050000e-3
3.941341780440000e-3 4.038693379510000e-3 4.138449574360000e-3 4.240669758790000e-3
4.345414793630001e-3 4.452747042980000e-3 4.562730411330000e-3 4.675430381640000e-3
4.790914054280000e-3 4.909250187040000e-3 5.030509235990000e-3 5.154763397520000e-3
5.282086651249999e-3 5.412554804100001e-3 5.546245535470000e-3 5.683238443410001e-3
5.823615092050001e-3 5.967459060199999e-3 6.114855991050000e-3 6.265893643180000e-3
6.420661942830000e-3 6.579253037440001e-3 6.741761350470000e-3 6.908283637680000e-3
7.078919044699999e-3 7.253769166060000e-3 7.432938105700000e-3 7.616532538920000e-3
7.804661775930000e-3 7.997437826920001e-3 8.194975468720001e-3 8.397392313190000e-3
8.604808877189999e-3 8.817348654369999e-3 9.035138188700000e-3 9.258307149780000e-3
9.486988410079999e-3 9.721318124040000e-3 9.961435809099999e-3 1.020748442880000e-2
1.045961047800000e-2 1.071796406980000e-2 1.098269902530000e-2 1.125397296500000e-2
1.153194740230000e-2 1.181678784060000e-2 1.210866387060000e-2 1.240774927250000e-2
1.271422211850000e-2 1.302826487930000e-2 1.335006453270000e-2 1.367981267490000e-2
1.401770563450000e-2 1.436394458930000e-2 1.471873568650000e-2 1.508229016490000e-2
1.545482448110000e-2 1.583656043810000e-2 1.622772531750000e-2 1.662855201480000e-2
1.703927917800000e-2 1.746015134980000e-2 1.789141911300000e-2 1.833333924000000e-2
1.878617484540000e-2 1.925019554270000e-2 1.972567760510000e-2 2.021290412960000e-2
2.071216520570000e-2 2.122375808840000e-2 2.174798737450000e-2 2.228516518480000e-2
2.283561134930000e-2 2.339965359790000e-2 2.397762775550000e-2 2.456987794180000e-2
2.517675677640000e-2 2.579862558860000e-2 2.643585463250000e-2 2.708882330770000e-2
2.775792038500000e-2 2.844354423760000e-2 2.914610307900000e-2 2.986601520510000e-2
3.060370924430000e-2 3.135962441180000e-2 3.213421077160000e-2 3.292792950440000e-2
3.374125318179999e-2 3.457466604850000e-2 3.542866430960000e-2 3.630375642670000e-2
3.720046342070000e-2 3.811931918139999e-2 3.906087078590001e-2 4.002567882430000e-2
4.101431773310000e-2 4.202737613770000e-2 4.306545720230000e-2 4.412917898950000e-2
4.521917482830000e-2 4.633609369069999e-2 4.748060057860000e-2 4.865337691930000e-2
4.985512097160000e-2 5.108654824140000e-2 5.234839190760000e-2 5.364140325859999e-2
5.496635213999999e-2 5.632402741240000e-2 5.771523742150000e-2 5.914081047920000e-2
6.060159535670000e-2 6.209846179010000e-2 6.363230099800000e-2 6.520402621220001e-2
6.681457322149999e-2 6.846490092870000e-2 7.015599192160000e-2 7.188885305820001e-2
7.366451606580000e-2 7.548403815570000e-2 7.734850265220000e-2 7.925901963789999e-2
8.121672661480000e-2 8.322278918100000e-2 8.527840172530000e-2 8.738478813779999e-2
8.954320253900001e-2 9.175493002620000e-2 9.402128743890000e-2 9.634362414240000e-2
9.872332283190000e-2 1.011618003550000e-1 1.036605085560000e-1 1.062209351390000e-1
1.088446045550000e-1 1.115330789110000e-1 1.142879588950000e-1 1.171108847330000e-1
1.200035371680000e-1 1.229676384530000e-1 1.260049533840000e-1 1.291172903450000e-1
1.323065023910000e-1 1.355744883440000e-1 1.389231939290000e-1 1.423546129300000e-1
1.458707883780000e-1 1.494738137680000e-1 1.531658343030000e-1 1.569490481730000e-1
1.608257078650000e-1 1.647981215000000e-1 1.688686542130000e-1 1.730397295560000e-1
1.773138309440000e-1 1.816935031320000e-1 1.861813537310000e-1 1.907800547600000e-1
1.954923442370000e-1 2.003210278120000e-1 2.052689804300000e-1 2.103391480520000e-1
2.155345494030000e-1 2.208582777690000e-1 2.263135028430000e-1 2.319034726090000e-1
2.376315152770000e-1 2.435010412630000e-1 2.495155452210000e-1 2.556786081250000e-1
2.619938993970000e-1 2.684651790960000e-1 2.750963001550000e-1 2.818912106720000e-1
2.888539562670000e-1 2.959886824860000e-1 3.032996372690000e-1 3.107911734840000e-1
3.184677515120000e-1 3.263339419080000e-1 3.343944281190000e-1 3.426540092740000e-1
3.511176030410000e-1 3.597902485560000e-1 3.686771094210000e-1 3.777834767790000e-1
3.871147724680000e-1 3.966765522430000e-1 4.064745090860001e-1 4.165144766000000e-1
4.268024324760001e-1 4.373445020560000e-1 4.481469619760000e-1 4.592162439090000e-1
4.705589383900000e-1 4.821817987400000e-1 4.940917450890000e-1 5.062958684930000e-1
5.188014351610000e-1 5.316158907760000e-1 5.447468649300000e-1 5.582021756700000e-1
5.719898341440000e-1 5.861180493830000e-1 6.005952331760001e-1 6.154300050870000e-1
6.306311975850000e-1 6.462078613010000e-1 6.621692704170000e-1 6.785249281900000e-1
6.952845726060000e-1 7.124581821830001e-1 7.300559819080000e-1 7.480884493270000e-1
7.665663207830001e-1 7.855005978060000e-1 8.049025536680000e-1 8.247837400900000e-1
8.451559941220001e-1 8.660314451909999e-1 8.874225223220000e-1 9.093419615400000e-1
9.318028134480000e-1 9.548184510030000e-1 9.784025774750001e-1 1.002569234610000e0
1.027332810970000e0 1.052708050540000e0 1.078710061480000e0 1.105354325090000e0
1.132656705110000e0 1.160633457090000e0 1.189301238080000e0 1.218677116580000e0
1.248778582700000e0 1.279623558510000e0 1.311230408810000e0 1.343617951970000e0
1.376805471210000e0 1.410812726020000e0 1.445659963960000e0 1.481367932730000e0
1.517957892470000e0 1.555451628450000e0 1.593871464060000e0 1.633240274070000e0
1.673581498250000e0 1.714919155340000e0 1.757277857360000e0 1.800682824230000e0
1.845159898820000e0 1.890735562310000e0 1.937436949970000e0
</PP_RAB>
</PP_MESH>
<PP_LOCAL columns="4">
-5.629052357650000e0 -5.629052357650000e0 -5.629052550530000e0 -5.629052741260000e0
-5.629052929870000e0 -5.629053116610000e0 -5.629053301670000e0 -5.629053485190000e0
-5.629053667390000e0 -5.629053848440000e0 -5.629054028540000e0 -5.629054207830000e0
-5.629054386610000e0 -5.629054564970000e0 -5.629054743180000e0 -5.629054921470000e0
-5.629055099990000e0 -5.629055279030000e0 -5.629055458750000e0 -5.629055639460000e0
-5.629055821310000e0 -5.629056004650000e0 -5.629056189640000e0 -5.629056376610000e0
-5.629056565800000e0 -5.629056757530000e0 -5.629056952070000e0 -5.629057149730000e0
-5.629057350830000e0 -5.629057555660000e0 -5.629057764590000e0 -5.629057977990000e0
-5.629058196200000e0 -5.629058419570000e0 -5.629058648580000e0 -5.629058883600000e0
-5.629059125060000e0 -5.629059373400000e0 -5.629059629100000e0 -5.629059892680000e0
-5.629060164590000e0 -5.629060445430000e0 -5.629060735710000e0 -5.629061036030000e0
-5.629061347020000e0 -5.629061669290000e0 -5.629062003500000e0 -5.629062350390000e0
-5.629062710630000e0 -5.629063085050000e0 -5.629063474410000e0 -5.629063879580000e0
-5.629064301390000e0 -5.629064740790000e0 -5.629065198740000e0 -5.629065676270000e0
-5.629066174410000e0 -5.629066694300000e0 -5.629067237060000e0 -5.629067803940000e0
-5.629068396210000e0 -5.629069015210000e0 -5.629069662380000e0 -5.629070339140000e0
-5.629071047060000e0 -5.629071787770000e0 -5.629072562990000e0 -5.629073374460000e0
-5.629074224070000e0 -5.629075113820000e0 -5.629076045740000e0 -5.629077021990000e0
-5.629078044880000e0 -5.629079116760000e0 -5.629080240140000e0 -5.629081417650000e0
-5.629082652030000e0 -5.629083946200000e0 -5.629085303180000e0 -5.629086726160000e0
-5.629088218480000e0 -5.629089783660000e0 -5.629091425380000e0 -5.629093147510000e0
-5.629094954120000e0 -5.629096849450000e0 -5.629098838010000e0 -5.629100924460000e0
-5.629103113780000e0 -5.629105411080000e0 -5.629107821900000e0 -5.629110351850000e0
-5.629113006910000e0 -5.629115793490000e0 -5.629118718070000e0 -5.629121787690000e0
-5.629125009510000e0 -5.629128391290000e0 -5.629131940970000e0 -5.629135667010000e0
-5.629139578290000e0 -5.629143683980000e0 -5.629147993960000e0 -5.629152518390000e0
-5.629157268020000e0 -5.629162254190000e0 -5.629167488680000e0 -5.629172983970000e0
-5.629178753070000e0 -5.629184809760000e0 -5.629191168380000e0 -5.629197844090000e0
-5.629204852690000e0 -5.629212210930000e0 -5.629219936280000e0 -5.629228047010000e0
-5.629236562540000e0 -5.629245503060000e0 -5.629254889780000e0 -5.629264745080000e0
-5.629275092340000e0 -5.629285956210000e0 -5.629297362510000e0 -5.629309338370000e0
-5.629321912210000e0 -5.629335113940000e0 -5.629348975020000e0 -5.629363528310000e0
-5.629378808420000e0 -5.629394851700000e0 -5.629411696280000e0 -5.629429382170000e0
-5.629447951420000e0 -5.629467448150000e0 -5.629487918690000e0 -5.629509411630000e0
-5.629531978100000e0 -5.629555671690000e0 -5.629580548630000e0 -5.629606668030000e0
-5.629634091940000e0 -5.629662885430000e0 -5.629693116870000e0 -5.629724857990000e0
-5.629758184160000e0 -5.629793174420000e0 -5.629829911780000e0 -5.629868483430000e0
-5.629908980760000e0 -5.629951499830000e0 -5.629996141430000e0 -5.630043011330000e0
-5.630092220590000e0 -5.630143885770000e0 -5.630198129210000e0 -5.630255079320000e0
-5.630314870870000e0 -5.630377645340000e0 -5.630443551170000e0 -5.630512744200000e0
-5.630585387920000e0 -5.630661654010000e0 -5.630741722490000e0 -5.630825782430000e0
-5.630914032130000e0 -5.631006679690000e0 -5.631103943520000e0 -5.631206052760000e0
-5.631313247800000e0 -5.631425780930000e0 -5.631543916780000e0 -5.631667933020000e0
-5.631798120900000e0 -5.631934785990000e0 -5.632078248840000e0 -5.632228845610000e0
-5.632386928940000e0 -5.632552868680000e0 -5.632727052690000e0 -5.632909887740000e0
-5.633101800330000e0 -5.633303237720000e0 -5.633514668780000e0 -5.633736585160000e0
-5.633969502180000e0 -5.634213959990000e0 -5.634470524900000e0 -5.634739790180000e0
-5.635022377750000e0 -5.635318939170000e0 -5.635630157100000e0 -5.635956746650000e0
-5.636299456900000e0 -5.636659072520000e0 -5.637036415000000e0 -5.637432344560000e0
-5.637847761870000e0 -5.638283609520000e0 -5.638740874160000e0 -5.639220588020000e0
-5.639723831170000e0 -5.640251733270000e0 -5.640805475710000e0 -5.641386293710000e0
-5.641995478500000e0 -5.642634379430000e0 -5.643304406350000e0 -5.644007031870000e0
-5.644743793710000e0 -5.645516297190000e0 -5.646326217620000e0 -5.647175302620000e0
-5.648065374840000e0 -5.648998334310000e0 -5.649976161020000e0 -5.651000917310000e0
-5.652074750440000e0 -5.653199894860000e0 -5.654378674810000e0 -5.655613506490000e0
-5.656906900230000e0 -5.658261462520000e0 -5.659679898170000e0 -5.661165011750000e0
-5.662719709360000e0 -5.664346999770000e0 -5.666049995470000e0 -5.667831913300000e0
-5.669696074620000e0 -5.671645905320000e0 -5.673684934860000e0 -5.675816795140000e0
-5.678045218560000e0 -5.680374035260000e0 -5.682807169720000e0 -5.685348636330000e0
-5.688002533970000e0 -5.690773039480000e0 -5.693664399910000e0 -5.696680923330000e0
-5.699826968190000e0 -5.703106931040000e0 -5.706525232520000e0 -5.710086301220000e0
-5.713794555660000e0 -5.717654383830000e0 -5.721670120380000e0 -5.725846021090000e0
-5.730186234640000e0 -5.734694771420000e0 -5.739375469060000e0 -5.744231954700000e0
-5.749267604080000e0 -5.754485496550000e0 -5.759888366800000e0 -5.765478552620000e0
-5.771257938910000e0 -5.777227897730000e0 -5.783389224780000e0 -5.789742072050000e0
-5.796285877030000e0 -5.803019288670000e0 -5.809940090530000e0 -5.817045121540000e0