<UPF version="2.0.1">
<PP_INFO>
Generated by new atomic code, or converted to UPF format
Author:
Generation date:
Pseudopotential type: NC
Element: K
Functional:  SLA  PZ   NOGX NOGC
Suggested minimum cutoff for wavefunctions:   0. Ry
Suggested minimum cutoff for charge density:   0. Ry
The Pseudo was generated with a Scalar-Relativistic Calculation
L component and cutoff radius for Local Potential:  0   0.0000
Valence configuration:
nl pn  l   occ       Rcut    Rcut US       E pseu
4S  0  0  1.00      0.000      0.000     0.000000
Generation configuration: not available.
</PP_INFO>
<!--
END OF HUMAN READABLE SECTION
-->
<PP_HEADER generated="Generated by new atomic code, or converted to UPF format" author="" date="" comment="" element="K " pseudo_type="NC" relativistic="scalar" is_ultrasoft="false" is_paw="false" is_coulomb="false" has_so="false" has_wfc="false" has_gipaw="false" paw_as_gipaw="false" core_correction="true" functional=" SLA  PZ   NOGX NOGC" z_valence="1.000000000000e0" total_psenergy="0.000000000000e0" wfc_cutoff="0.000000000000e0" rho_cutoff="0.000000000000e0" l_max="-1" l_max_rho="0" l_local="0" mesh_size="177" number_of_wfc="1" number_of_proj="0"/>
<PP_MESH dx="6.250000000000e-2" mesh="177" xmin="-4.000000000000e0" rmax="5.771753465410e1" zmesh="1.900000000000e1">
<PP_R>
9.639809941440001e-4 1.026152426770000e-3 1.092333572300000e-3 1.162783035000000e-3
1.237776097680000e-3 1.317605797370000e-3 1.402584070330000e-3 1.493042971040000e-3
1.589335969600000e-3 1.691839332990000e-3 1.800953595350000e-3 1.917105123020000e-3
2.040747780620000e-3 2.172364704520000e-3 2.312470190710000e-3 2.461611704420000e-3
2.620372019360000e-3 2.789371494910000e-3 2.969270500199999e-3 3.160771994490000e-3
3.364624274040000e-3 3.581623896050000e-3 3.812618791280000e-3 4.058511577279999e-3
4.320263085470001e-3 4.598896115550000e-3 4.895499432140000e-3 5.211232019150001e-3
5.547327608520001e-3 5.905099501070000e-3 6.285945698250000e-3 6.691354364840000e-3
7.122909644030000e-3 7.582297847440000e-3 8.071314044470000e-3 8.591869076520000e-3
9.145997023710001e-3 9.735863153019999e-3 1.036377237920000e-2 1.103217827110000e-2
1.174369263940000e-2 1.250109574190000e-2 1.330734714760000e-2 1.416559730150000e-2
1.507919983470000e-2 1.605172466900000e-2 1.708697196620000e-2 1.818898697770000e-2
1.936207585110000e-2 2.061082245670000e-2 2.194010629890000e-2 2.335512158320000e-2
2.486139751270000e-2 2.646481989320000e-2 2.817165413260000e-2 2.998856972270000e-2
3.192266630070000e-2 3.398150139090000e-2 3.617311993640000e-2 3.850608573400000e-2
4.098951489850000e-2 4.363311148320000e-2 4.644720539920000e-2 4.944279277970000e-2
5.263157894739999e-2 5.602602415360001e-2 5.963939226670000e-2 6.348580260109999e-2
6.758028508880000e-2 7.193883900910000e-2 7.657849550620000e-2 8.151738413860000e-2
8.677480372110001e-2 9.237129773480001e-2 9.832873460169999e-2 1.046703931360000e-1
1.114210535060000e-1 1.186070940640000e-1 1.262565944190000e-1 1.343994451610000e-1
1.430674646560000e-1 1.522945233770000e-1 1.621166762590000e-1 1.725723035760000e-1
1.837022609190000e-1 1.955500388390000e-1 2.081619327850000e-1 2.215872240080000e-1
2.358783721230000e-1 2.510912201040000e-1 2.672852124830000e-1 2.845236276390000e-1
3.028738250530000e-1 3.224075085200000e-1 3.432010063330000e-1 3.653355695370000e-1
3.888976894170000e-1 4.139794354710000e-1 4.406788151650000e-1 4.691001569050000e-1
4.993545177030000e-1 5.315601171310000e-1 5.658427992670000e-1 6.023365244380000e-1
6.411838926690000e-1 6.825367008930000e-1 7.265565361089999e-1 7.734154067780000e-1
8.232964149570000e-1 8.763944717690000e-1 9.329170590240000e-1 9.930850399610000e-1
1.057133522270000e0 1.125312776800000e0 1.197889215450000e0 1.275146432240000e0
1.357386311430000e0 1.444930207130000e0 1.538120199010000e0 1.637320429000000e0
1.742918524140000e0 1.855327111290000e0 1.974985429450000e0 2.102361046100000e0
2.237951684210000e0 2.382287167170000e0 2.535931489010000e0 2.699485018240000e0
2.873586843850000e0 3.058917272500000e0 3.256200486860000e0 3.466207375390000e0
3.689758544560000e0 3.927727525430000e0 4.181044186960000e0 4.450698369510000e0
4.737743752660000e0 5.043301972480000e0 5.368567004350000e0 5.714809828460000e0
6.083383396170000e0 6.475727916690000e0 6.893376484780000e0 7.337961071280000e0
7.811218900140000e0 8.314999236589999e0 8.851270613260001e0 9.422128522190000e0
1.002980360310000e1 1.067667035950000e1 1.136525643740000e1 1.209825250180000e1
1.287852275070000e1 1.370911610720000e1 1.459327813280000e1 1.553446370980000e1
1.653635054140000e1 1.760285352200000e1 1.873814003530000e1 1.994664623800000e1
2.123309439440000e1 2.260251132850000e1 2.406024806680000e1 2.561200074730000e1
2.726383287730000e1 2.902219902670000e1 3.089397004960000e1 3.288645993170000e1
3.500745437080000e1 3.726524119850000e1 3.966864276600000e1 4.222705041720000e1
4.495046118560000e1 4.784951685790000e1 5.093554555710000e1 5.422060600750001e1
5.771753465410001e1
</PP_R>
<PP_RAB>
6.024881213400000e-5 6.413452667300001e-5 6.827084826870000e-5 7.267393968769999e-5
7.736100610530000e-5 8.235036233539999e-5 8.766150439590001e-5 9.331518568980000e-5
9.933349809970000e-5 1.057399583120000e-4 1.125595997090000e-4 1.198190701890000e-4
1.275467362890000e-4 1.357727940320000e-4 1.445293869190000e-4 1.538507315260000e-4
1.637732512100000e-4 1.743357184320000e-4 1.855794062620000e-4 1.975482496560000e-4
2.102890171270000e-4 2.238514935030000e-4 2.382886744550000e-4 2.536569735800000e-4
2.700164428419999e-4 2.874310072220000e-4 3.059687145090000e-4 3.257020011970000e-4
3.467079755319999e-4 3.690687188170000e-4 3.928716061410000e-4 4.182096478030000e-4
4.451818527520000e-4 4.738936154650000e-4 5.044571277790000e-4 5.369918172830000e-4
5.716248139820000e-4 6.084914470640000e-4 6.477357736979999e-4 6.895111419440001e-4
7.339807899619998e-4 7.813184838670001e-4 8.317091967260000e-4 8.853498313459998e-4
9.424499896720000e-4 1.003232791810000e-3 1.067935747890000e-3 1.136811686110000e-3
1.210129740700000e-3 1.288176403540000e-3 1.371256643680000e-3 1.459695098950000e-3
1.553837344540000e-3 1.654051243330000e-3 1.760728383290000e-3 1.874285607670000e-3
1.995166643790000e-3 2.123843836930000e-3 2.260819996020000e-3 2.406630358380000e-3
2.561844681160000e-3 2.727069467700000e-3 2.902950337450000e-3 3.090174548730000e-3
3.289473684210000e-3 3.501626509600000e-3 3.727462016670000e-3 3.967862662570000e-3
4.223767818050000e-3 4.496177438070000e-3 4.786155969140000e-3 5.094836508660000e-3
5.423425232570000e-3 5.773206108419999e-3 6.145545912610000e-3 6.541899570990001e-3
6.963815844120001e-3 7.412943378990001e-3 7.891037151210000e-3 8.399965322580000e-3
8.941716540980000e-3 9.518407711089999e-3 1.013229226620000e-2 1.078576897350000e-2
1.148139130740000e-2 1.222187742740000e-2 1.301012079910000e-2 1.384920150050000e-2
1.474239825770000e-2 1.569320125650000e-2 1.670532578020000e-2 1.778272672740000e-2
1.892961406580000e-2 2.015046928250000e-2 2.145006289580000e-2 2.283347309600000e-2
2.430610558860000e-2 2.587371471690000e-2 2.754242594780000e-2 2.931875980660000e-2
3.120965735640000e-2 3.322250732070000e-2 3.536517495420000e-2 3.764603277740000e-2
4.007399329180000e-2 4.265854380580000e-2 4.540978350680000e-2 4.833846292360001e-2
5.145602593480000e-2 5.477465448559999e-2 5.830731618900000e-2 6.206781499760000e-2
6.607084514209999e-2 7.033204854970000e-2 7.486807596550000e-2 7.969665201520000e-2
8.483664446450000e-2 9.030813794560000e-2 9.613251243830000e-2 1.023325268120000e-1
1.089324077590000e-1 1.159579444560000e-1 1.234365893410000e-1 1.313975653810000e-1
1.398719802630000e-1 1.488929479480000e-1 1.584957180630000e-1 1.687178136400000e-1
1.795991777410000e-1 1.911823295310000e-1 2.035125304290000e-1 2.166379609620000e-1
2.306099090350000e-1 2.454829703390000e-1 2.613152616850000e-1 2.781686480940000e-1
2.961089845410000e-1 3.152063732800000e-1 3.355354377720000e-1 3.571756142790000e-1
3.802114622600000e-1 4.047329947930000e-1 4.308360302990000e-1 4.586225669550000e-1
4.882011812580000e-1 5.196874522870000e-1 5.532044133279999e-1 5.888830326370000e-1
6.268627251930000e-1 6.672918974700000e-1 7.103285273380000e-1 7.561407813620001e-1
8.049076719220000e-1 8.568197567009999e-1 9.120798833000000e-1 9.709039818630000e-1
1.033521908830000e0 1.100178345120000e0 1.171133752210000e0 1.246665389880000e0
1.327068399650000e0 1.412656958030000e0 1.503765504170000e0 1.600750046710000e0
1.703989554830000e0 1.813887439170000e0 1.930873128100000e0 2.055403745730000e0
2.187965898170000e0 2.329077574910000e0 2.479290172880000e0 2.639190651080000e0
2.809403824100000e0 2.990594803620000e0 3.183471597320000e0 3.388787875470000e0
3.607345915880000e0
</PP_RAB>
</PP_MESH>
<PP_NLCC columns="4">
1.319500055880000e-2 1.319500063330000e-2 1.319500071760000e-2 1.319500081310000e-2
1.319500092140000e-2 1.319500104410000e-2 1.319500118310000e-2 1.319500134060000e-2
1.319500151910000e-2 1.319500172140000e-2 1.319500195050000e-2 1.319500221030000e-2
1.319500250450000e-2 1.319500283800000e-2 1.319500321590000e-2 1.319500364410000e-2
1.319500412930000e-2 1.319500467910000e-2 1.319500530210000e-2 1.319500600800000e-2
1.319500680800000e-2 1.319500771440000e-2 1.319500874160000e-2 1.319500990550000e-2
1.319501122430000e-2 1.319501271880000e-2 1.319501441220000e-2 1.319501633100000e-2
1.319501850540000e-2 1.319502096920000e-2 1.319502376100000e-2 1.319502692450000e-2
1.319503050910000e-2 1.319503457100000e-2 1.319503917350000e-2 1.319504438870000e-2
1.319505029810000e-2 1.319505699410000e-2 1.319506458130000e-2 1.319507317840000e-2
1.319508291960000e-2 1.319509395710000e-2 1.319510646340000e-2 1.319512063380000e-2
1.319513668950000e-2 1.319515488120000e-2 1.319517549270000e-2 1.319519884550000e-2
1.319522530390000e-2 1.319525528010000e-2 1.319528924110000e-2 1.319532771580000e-2
1.319537130270000e-2 1.319542067950000e-2 1.319547661330000e-2 1.319553997210000e-2
1.319561173820000e-2 1.319569302290000e-2 1.319578508300000e-2 1.319588933970000e-2
1.319600739980000e-2 1.319614107880000e-2 1.319629242790000e-2 1.319646376320000e-2
1.319665769880000e-2 1.319687718350000e-2 1.319712554170000e-2 1.319740651830000e-2
1.319772432890000e-2 1.319808371400000e-2 1.319848999910000e-2 1.319894915900000e-2
1.319946788800000e-2 1.320005367350000e-2 1.320071487450000e-2 1.320146080210000e-2
1.320230180080000e-2 1.320324932790000e-2 1.320431602780000e-2 1.320551579480000e-2
1.320686381770000e-2 1.320837659710000e-2 1.321007192180000e-2 1.321196878660000e-2
1.321408723080000e-2 1.321644806530000e-2 1.321907245220000e-2 1.322198128670000e-2
1.322519431690000e-2 1.322872892170000e-2 1.323259844280000e-2 1.323680993950000e-2
1.324136120340000e-2 1.324623682690000e-2 1.325140307040000e-2 1.325680121560000e-2
1.326233902150000e-2 1.326787982050000e-2 1.327322870550000e-2 1.327811516220000e-2
1.328217140430000e-2 1.328490558370000e-2 1.328566898030000e-2 1.328361626050000e-2
1.327765795480000e-2 1.326640449260000e-2 1.324810152200000e-2 1.322055690100000e-2
1.318106079930000e-2 1.312630191730000e-2 1.305228504440000e-2 1.295425817770000e-2
1.282666127860000e-2 1.266311343310000e-2 1.245646045600000e-2 1.219891028650000e-2
1.188228778080000e-2 1.149844201140000e-2 1.103983544760000e-2 1.050033222310000e-2
9.876178583850002e-3 9.167129595790000e-3 8.377621562519998e-3 7.517823204849999e-3
6.604331754240000e-3 5.660233491690001e-3 4.714251800110000e-3 3.798792743120000e-3
2.946891948890000e-3 2.188360470530000e-3 1.545763583280000e-3 1.031128931690000e-3
6.443188707280000e-4 3.736992011449999e-4 1.991018096290000e-4 9.631022079000001e-5
4.174093326380000e-5 1.596762742770000e-5 5.300900759960001e-6 1.498183999200000e-6
3.527484241390000e-7 6.751247776920000e-8 1.021519471360000e-8 1.184074448740000e-9
1.014600783360000e-10 6.172416350499999e-12 2.546776539050000e-13 6.766980837940001e-15
0.000000000000000e0 0.000000000000000e0 0.000000000000000e0 0.000000000000000e0
0.000000000000000e0 0.000000000000000e0 0.000000000000000e0 0.000000000000000e0
0.000000000000000e0 0.000000000000000e0 0.000000000000000e0 0.000000000000000e0
0.000000000000000e0 0.000000000000000e0 0.000000000000000e0 0.000000000000000e0
0.000000000000000e0 0.000000000000000e0 0.000000000000000e0 0.000000000000000e0
0.000000000000000e0 0.000000000000000e0 0.000000000000000e0 0.000000000000000e0
0.000000000000000e0 0.000000000000000e0 0.000000000000000e0 0.000000000000000e0
0.000000000000000e0
</PP_NLCC>
<PP_LOCAL columns="4">
3.976041902560000e0 3.976041658480000e0 3.976041381900000e0 3.976041068490000e0
3.976040713350000e0 3.976040310930000e0 3.976039854930000e0 3.976039338210000e0
3.976038752690000e0 3.976038089200000e0 3.976037337380000e0 3.976036485450000e0
3.976035520090000e0 3.976034426200000e0 3.976033186650000e0 3.976031782060000e0
3.976030190450000e0 3.976028386930000e0 3.976026343260000e0 3.976024027490000e0
3.976021403370000e0 3.976018429860000e0 3.976015060430000e0 3.976011242370000e0
3.976006915950000e0 3.976002013470000e0 3.975996458240000e0 3.975990163340000e0
3.975983030300000e0 3.975974947510000e0 3.975965788520000e0 3.975955410040000e0
3.975943649710000e0 3.975930323530000e0 3.975915223020000e0 3.975898111950000e0
3.975878722620000e0 3.975856751690000e0 3.975831855470000e0 3.975803644460000e0
3.975771677360000e0 3.975735454070000e0 3.975694407950000e0 3.975647896920000e0
3.975595193420000e0 3.975535473050000e0 3.975467801670000e0 3.975391120800000e0
3.975304231090000e0 3.975205773550000e0 3.975094208360000e0 3.974967790750000e0
3.974824543810000e0 3.974662227590000e0 3.974478304130000e0 3.974269897850000e0
3.974033750700000e0 3.973766171320000e0 3.973462977510000e0 3.973119431070000e0
3.972730163960000e0 3.972289094810000e0 3.971789334280000e0 3.971223078030000e0
3.970581485480000e0 3.969854542720000e0 3.969030907350000e0 3.968097732900000e0
3.967040470420000e0 3.965842643990000e0 3.964485597080000e0 3.962948205930000e0
3.961206555840000e0 3.959233575690000e0 3.956998625580000e0 3.954467031800000e0
3.951599562720000e0 3.948351838710000e0 3.944673668080000e0 3.940508300890000e0
3.935791591060000e0 3.930451057140000e0 3.924404830850000e0 3.917560482330000e0
3.909813710150000e0 3.901046884420000e0 3.891127431040000e0 3.879906045950000e0
3.867214729570000e0 3.852864634020000e0 3.836643719090000e0 3.818314218670000e0
3.797609926890000e0 3.774233324300000e0 3.747852579160000e0 3.718098479360000e0
3.684561377320000e0 3.646788265840000e0 3.604280149150000e0 3.556489933180000e0
3.502821134810000e0 3.442627805130000e0 3.375216178980000e0 3.299848704870000e0
3.215751275620000e0 3.122124668750000e0 3.018161407830000e0 2.903069453960000e0
2.776104299410000e0 2.636611112220000e0 2.484078492450000e0 2.318205038010000e0
2.138979132230000e0 1.946770976000000e0 1.742433702640000e0 1.527407273830000e0
1.303814719130000e0 1.074535359800000e0 8.432345845120000e-1 6.143257669120000e-1
3.928390039000000e-1 1.841760914680000e-1 -6.255795641030000e-3 -1.735162950070000e-1
-3.136628208960000e-1 -4.242586777800000e-1 -5.047507119880001e-1 -5.566066028770001e-1
-5.831364703900000e-1 -5.889969531940000e-1 -5.794709452680000e-1 -5.596960765280000e-1
-5.340381250870000e-1 -5.057508631949999e-1 -4.769516776140000e-1 -4.488292506390000e-1
-4.219433731490000e-1 -3.964959766720000e-1 -3.725161425370000e-1 -3.499611694350000e-1
-3.287626669050000e-1 -3.088451991170000e-1 -2.901335080890000e-1 -2.725552644310000e-1
-2.560419846710000e-1 -2.405291861270000e-1 -2.259562595380000e-1 -2.122662618420000e-1
-1.994056991690000e-1 -1.873243185990000e-1 -1.759749118740000e-1 -1.653131309420000e-1
-1.552973146620000e-1 -1.458883260130000e-1 -1.370493991690000e-1 -1.287459958300000e-1
-1.209456702670000e-1 -1.136179425400000e-1 -1.067341793920000e-1 -1.002674823690000e-1
-9.419258271329999e-2 -8.848574262100000e-2 -8.312466249090001e-2 -7.808839378599998e-2
-7.335725717670000e-2 -6.891276564390001e-2 -6.473755224050000e-2 -6.081530222930000e-2
-5.713068933310000e-2 -5.366931584710001e-2 -5.041765637899999e-2 -4.736300499890000e-2
-4.449342559010000e-2 -4.179770520860000e-2 -3.926531026860000e-2 -3.688634538180000e-2
-3.465151469110000e-2
</PP_LOCAL>
<PP_NONLOCAL>
<PP_DIJ>
6.950467852336240e-310
</PP_DIJ>
</PP_NONLOCAL>
<PP_PSWFC>
<PP_CHI.1 index="1" label="4S" l="0" occupation="1.000000000000e0" n="0" pseudo_energy="0.000000000000e0" cutoff_radius="6.950467852324e-310" ultrasoft_cutoff_radius="6.950467852324e-310">
3.277815000000000e-5 3.489215900000000e-5 3.714251000000001e-5 3.953799600000001e-5
4.208797900000000e-5 4.480242300000000e-5 4.769193499999999e-5 5.076780599999999e-5
5.404205600000001e-5 5.752747900000000e-5 6.123769500000000e-5 6.518720300000002e-5
6.939143700000000e-5 7.386682499999999e-5 7.863085600000000e-5 8.370214899999999e-5
8.910052000000002e-5 9.484706600000001e-5 1.009642400000000e-4 1.074759600000000e-4
1.144076700000000e-4 1.217864500000000e-4 1.296411500000000e-4 1.380024700000000e-4
1.469030800000000e-4 1.563777800000000e-4 1.664635900000000e-4 1.771999500000000e-4
1.886288300000000e-4 2.007949000000000e-4 2.137457400000000e-4 2.275319600000000e-4
2.422075000000000e-4 2.578297200000000e-4 2.744597300000000e-4 2.921625900000000e-4
3.110075300000000e-4 3.310683000000000e-4 3.524233900000000e-4 3.751563800000000e-4
3.993562900000000e-4 4.251178500000000e-4 4.525419900000000e-4 4.817361500000001e-4
5.128147600000000e-4 5.458996799999999e-4 5.811207100000000e-4 6.186160899999999e-4
6.585330799999999e-4 7.010285500000000e-4 7.462696400000000e-4 7.944344300000000e-4
8.457127000000000e-4 9.003067300000001e-4 9.584321200000002e-4 1.020318800000000e-3
1.086211900000000e-3 1.156372900000000e-3 1.231080800000000e-3 1.310633400000000e-3
1.395348700000000e-3 1.485566100000000e-3 1.581648400000000e-3 1.683983600000000e-3
1.792986400000000e-3 1.909100800000000e-3 2.032802200000000e-3 2.164600300000000e-3
2.305041800000000e-3 2.454713500000000e-3 2.614246500000000e-3 2.784319700000000e-3
2.965664700000000e-3 3.159071200000000e-3 3.365392400000000e-3 3.585552300000000e-3
3.820553500000000e-3 4.071485600000000e-3 4.339536300000001e-3 4.626002800000000e-3
4.932305900000000e-3 5.260006400000000e-3 5.610824000000001e-3 5.986659899999999e-3
6.389622699999999e-3 6.822059899999999e-3 7.286594600000001e-3 7.786169200000000e-3
8.324097200000001e-3 8.904125100000000e-3 9.530506600000001e-3 1.020809100000000e-2
1.094242700000000e-2 1.173989300000000e-2 1.260784700000000e-2 1.355481100000000e-2
1.459068800000000e-2 1.572703000000000e-2 1.697735600000000e-2 1.835753500000000e-2
1.988624600000000e-2 2.158552999999999e-2 2.348145600000000e-2 2.560490700000000e-2
2.799252000000000e-2 3.068779400000000e-2 3.374238100000000e-2 3.721757900000000e-2
4.118601900000000e-2 4.573352900000000e-2 5.096111199999999e-2 5.698691400000000e-2
6.394798900000000e-2 7.200151900000000e-2 8.132500600000000e-2 9.211473100000001e-2
1.045815400000000e-1 1.189427900000000e-1 1.354091900000000e-1 1.541653200000000e-1
1.753430200000000e-1 1.989881100000000e-1 2.250224200000000e-1 2.532057500000000e-1
2.831047300000000e-1 3.140776200000000e-1 3.452836500000000e-1 3.757226400000000e-1
4.043035200000000e-1 4.299328300000000e-1 4.516067700000000e-1 4.684886700000000e-1
4.799578500000000e-1 4.856250800000000e-1 4.853206800000000e-1 4.790682400000000e-1
4.670581600000000e-1 4.496300600000000e-1 4.272651900000001e-1 4.005828000000000e-1
3.703325200000000e-1 3.373764700000000e-1 3.026589700000000e-1 2.671659200000000e-1
2.318749100000000e-1 1.977042300000000e-1 1.654638500000000e-1 1.358139700000000e-1
1.092357300000000e-1 8.601709800000000e-2 6.625530600000000e-2 4.987480600000000e-2
3.665760700000000e-2 2.628151500000000e-2 1.836105900000000e-2 1.248627000000000e-2
8.255473100000000e-3 5.299850500000001e-3 3.298856100000000e-3 1.987808600000000e-3
1.156804900000000e-3 6.488688700000001e-4 3.504006200000001e-4 1.818307700000000e-4
9.043364600000000e-5 4.298727800000000e-5 1.947154100000000e-5 8.377646200000001e-6
3.412123900000000e-6 1.310690100000000e-6 4.730354700000000e-7 1.595302400000000e-7
4.987406899999999e-8 0.000000000000000e0 0.000000000000000e0 0.000000000000000e0
0.000000000000000e0
</PP_CHI.1>
</PP_PSWFC>
<PP_RHOATOM>
1.074407117420000e-9 1.217462759680000e-9 1.379566049100000e-9 1.563253127700000e-9
1.771397976300000e-9 2.007257106670000e-9 2.274520664040000e-9 2.577370126050000e-9
2.920543816710000e-9 3.309410840100000e-9 3.750055288909999e-9 4.249371434960000e-9
4.815171528920001e-9 5.456307835580000e-9 6.182811515290000e-9 7.006049747219999e-9
7.938902664270000e-9 8.995965928810000e-9 1.019377775880000e-8 1.155108197790000e-8
1.308911495480000e-8 1.483193940360000e-8 1.680682777330000e-8 1.904468172610000e-8
2.158051491350000e-8 2.445401007770001e-8 2.771012679570000e-8 3.139982228000000e-8
3.558083550720000e-8 4.031859186600001e-8 4.568724136809999e-8 5.177079282140000e-8
5.866447305619999e-8 6.647616451530002e-8 7.532814339170000e-8 8.535897899550003e-8
9.672568371670000e-8 1.096062192650000e-7 1.242022458190000e-7 1.407423094550000e-7
1.594854463630000e-7 1.807251863890000e-7 2.047942527130000e-7 2.320697182170000e-7
2.629789780740000e-7 2.980064606240001e-7 3.377012795910000e-7 3.826858668070000e-7
4.336658174540000e-7 4.914410279149999e-7 5.569183755860001e-7 6.311260635689999e-7
7.152299709409998e-7 8.105522080829999e-7 9.185921286480001e-7 1.041050453630000e-6
1.179856291700000e-6 1.337198283850000e-6 1.515559936130000e-6 1.717759909200000e-6
1.946997994590000e-6 2.206906637470000e-6 2.501611661220000e-6 2.835800765070000e-6
3.214800230580001e-6 3.644665864559999e-6 4.132284784319999e-6 4.685494458760001e-6
5.313217699750000e-6 6.025618367080000e-6 6.834284762760001e-6 7.752436191809999e-6
8.795167112830001e-6 9.979730846670002e-6 1.132586600600000e-5 1.285618529600000e-5
1.459662904640000e-5 1.657699499100000e-5 1.883157529900000e-5 2.139990190560000e-5
2.432764149120000e-5 2.766766732800000e-5 3.148134595899999e-5 3.584009675830000e-5
4.082727824839999e-5 4.654050127920001e-5 5.309446086470000e-5 6.062443081100000e-5
6.929059419500000e-5 7.928344379650001e-5 9.083055605260000e-5 1.042051218640000e-4
1.197367086500000e-4 1.378250876510000e-4 1.589578059750000e-4 1.837329012460000e-4
2.128881763130000e-4 2.473394726210000e-4 2.882306167510000e-4 3.369990912760001e-4
3.954627799730000e-4 4.659351053810000e-4 5.513787758800000e-4 6.556112624789999e-4
7.835811759500000e-4 9.417407005859999e-4 1.138548275550000e-3 1.385148186620000e-3
1.696288161070000e-3 2.091555674790000e-3 2.597034936280000e-3 3.247508367240000e-3
4.089345297140000e-3 5.184218738310000e-3 6.613756600900000e-3 8.485123667200000e-3
1.093729850880000e-2 1.414738729300000e-2 1.833564873650000e-2 2.376694589070000e-2
3.074517466270000e-2 3.959626792140000e-2 5.063508950270000e-2 6.411315183310000e-2
8.014828814840001e-2 9.864475138490000e-2 1.192207989570000e-1 1.411675022090000e-1
1.634613362840000e-1 1.848422383120000e-1 2.039486747100000e-1 2.194816339180000e-1
2.303595377770000e-1 2.358317183250000e-1 2.355361624360000e-1 2.295063785770000e-1
2.181433248230000e-1 2.021671908560000e-1 1.825555425860000e-1 1.604665796560000e-1
1.371461753700000e-1 1.138228825100000e-1 9.160245212150000e-2 7.137762880940000e-2
5.376597388750000e-2 3.908696255990000e-2 2.737828565680000e-2 1.844543444720000e-2
1.193244470860000e-2 7.398941148340000e-3 4.389765573150000e-3 2.487496273540000e-3
1.343780150970000e-3 6.907180306950000e-4 3.371284876010000e-4 1.559069385130000e-4
6.815283610480000e-5 2.808841532240000e-5 1.088245156850000e-5 3.951383030230000e-6
1.338197576660000e-6 4.210308104550000e-7 1.227805944960000e-7 3.306242891880000e-8
8.178244328850003e-9 1.847906069850000e-9 3.791409089150000e-10 7.018495585240001e-11
1.164258950900000e-11 1.717908538240000e-12 2.237625558780000e-13 2.544989747450001e-14
2.487422758620000e-15 0.000000000000000e0 0.000000000000000e0 0.000000000000000e0
0.000000000000000e0
</PP_RHOATOM>
</UPF>
