<UPF version="2.0.1">
<PP_INFO>
Generated by new atomic code, or converted to UPF format
Author:
Generation date:
Pseudopotential type: NC
Element: P
Functional:  SLA  PZ   NOGX NOGC
Suggested minimum cutoff for wavefunctions:   0. Ry
Suggested minimum cutoff for charge density:   0. Ry
The Pseudo was generated with a Non-Relativistic Calculation
L component and cutoff radius for Local Potential:  0   0.0000
Valence configuration:
nl pn  l   occ       Rcut    Rcut US       E pseu
3S  0  0  2.00      0.000      0.000     0.000000
3P  0  1  3.00      0.000      0.000     0.000000
Generation configuration: not available.
</PP_INFO>
<!--
END OF HUMAN READABLE SECTION
-->
<PP_HEADER generated="Generated by new atomic code, or converted to UPF format" author="" date="" comment="" element="P " pseudo_type="NC" relativistic="no" is_ultrasoft="false" is_paw="false" is_coulomb="false" has_so="false" has_wfc="false" has_gipaw="false" paw_as_gipaw="false" core_correction="false" functional=" SLA  PZ   NOGX NOGC" z_valence="5.000000000000e0" total_psenergy="0.000000000000e0" wfc_cutoff="0.000000000000e0" rho_cutoff="0.000000000000e0" l_max="1" l_max_rho="0" l_local="0" mesh_size="433" number_of_wfc="2" number_of_proj="2"/>
<PP_MESH dx="2.500000000000e-2" mesh="433" xmin="-4.000000000002e0" rmax="5.985648611000e1" zmesh="1.500000000000e1">
<PP_R>
1.221042592580000e-3 1.251953432980000e-3 1.283646785030000e-3 1.316142458100000e-3
1.349460763050000e-3 1.383622524910000e-3 1.418649095890000e-3 1.454562368740000e-3
1.491384790410000e-3 1.529139376130000e-3 1.567849723730000e-3 1.607540028450000e-3
1.648235098020000e-3 1.689960368180000e-3 1.732741918580000e-3 1.776606489090000e-3
1.821581496490000e-3 1.867695051610000e-3 1.914975976950000e-3 1.963453824610000e-3
2.013158894820000e-3 2.064122254880000e-3 2.116375758540000e-3 2.169952065940000e-3
2.224884664020000e-3 2.281207887440000e-3 2.338956940060000e-3 2.398167916900000e-3
2.458877826750000e-3 2.521124615290000e-3 2.584947188780000e-3 2.650385438410000e-3
2.717480265220000e-3 2.786273605660000e-3 2.856808457800000e-3 2.929128908230000e-3
3.003280159570000e-3 3.079308558780000e-3 3.157261626080000e-3 3.237188084670000e-3
3.319137891190000e-3 3.403162266940000e-3 3.489313729900001e-3 3.577646127520000e-3
3.668214670430000e-3 3.761075966920000e-3 3.856288058320001e-3 3.953910455300000e-3
4.054004175010000e-3 4.156631779310000e-3 4.261857413780000e-3 4.369746847869999e-3
4.480367515980000e-3 4.593788559640000e-3 4.710080870700001e-3 4.829317135620000e-3
4.951571880960000e-3 5.076921519910000e-3 5.205444400080000e-3 5.337220852450000e-3
5.472333241590000e-3 5.610866017150000e-3 5.752905766620000e-3 5.898541269470002e-3
6.047863552630000e-3 6.200965947380000e-3 6.357944147700000e-3 6.518896270090001e-3
6.683922914849999e-3 6.853127229020000e-3 7.026614970790001e-3 7.204494575660001e-3
7.386877224159999e-3 7.573876911380001e-3 7.765610518230000e-3 7.962197884450001e-3
8.163761883529999e-3 8.370428499549998e-3 8.582326905850001e-3 8.799589545860000e-3
9.022352215769999e-3 9.250754149530000e-3 9.484938105770000e-3 9.725050457079998e-3
9.971241281510000e-3 1.022366445630000e-2 1.048247775420000e-2 1.074784294200000e-2
1.101992588140000e-2 1.129889663330000e-2 1.158492956340000e-2 1.187820345150000e-2
1.217890160350000e-2 1.248721196550000e-2 1.280332724140000e-2 1.312744501360000e-2
1.345976786630000e-2 1.380050351210000e-2 1.414986492180000e-2 1.450807045770000e-2
1.487534400990000e-2 1.525191513630000e-2 1.563801920630000e-2 1.603389754720000e-2
1.643979759610000e-2 1.685597305360000e-2 1.728268404310000e-2 1.772019727260000e-2
1.816878620230000e-2 1.862873121480000e-2 1.910031979070000e-2 1.958384668820000e-2
2.007961412750000e-2 2.058793197920000e-2 2.110911795860000e-2 2.164349782390000e-2
2.219140557990000e-2 2.275318368670000e-2 2.332918327410000e-2 2.391976436040000e-2
2.452529607810000e-2 2.514615690420000e-2 2.578273489700000e-2 2.643542793830000e-2
2.710464398270000e-2 2.779080131190000e-2 2.849432879660000e-2 2.921566616430000e-2
2.995526427450001e-2 3.071358539990000e-2 3.149110351610001e-2 3.228830459700000e-2
3.310568691940000e-2 3.394376137380000e-2 3.480305178410000e-2 3.568409523460000e-2
3.658744240630000e-2 3.751365792050000e-2 3.846332069200000e-2 3.943702429110000e-2
4.043537731420000e-2 4.145900376430000e-2 4.250854344150000e-2 4.358465234200000e-2
4.468800306900000e-2 4.581928525270000e-2 4.697920598120000e-2 4.816849024280000e-2
4.938788137880000e-2 5.063814154830000e-2 5.192005220480000e-2 5.323441458400000e-2
5.458205020520000e-2 5.596380138460000e-2 5.738053176170000e-2 5.883312683900001e-2
6.032249453570000e-2 6.184956575519999e-2 6.341529496670000e-2 6.502066080190000e-2
6.666666666670000e-2 6.835434136830000e-2 7.008473975840000e-2 7.185894339230002e-2
7.367806120500000e-2 7.554323020450000e-2 7.745561618190000e-2 7.941641444080000e-2
8.142685054400001e-2 8.348818107950001e-2 8.560169444580000e-2 8.776871165779999e-2
8.999058717170000e-2 9.226870973210000e-2 9.460450323960000e-2 9.699942764119999e-2
9.945497984279999e-2 1.019726946440000e-1 1.045541456990000e-1 1.072009464990000e-1
1.099147513800000e-1 1.126972565590000e-1 1.155502011910000e-1 1.184753684610000e-1
1.214745866930000e-1 1.245497304950000e-1 1.277027219340000e-1 1.309355317310000e-1
1.342501804980000e-1 1.376487399980000e-1 1.411333344410000e-1 1.447061418120000e-1
1.483693952330000e-1 1.521253843550000e-1 1.559764567950000e-1 1.599250195980000e-1
1.639735407440000e-1 1.681245506910000e-1 1.723806439540000e-1 1.767444807320000e-1
1.812187885640000e-1 1.858063640380000e-1 1.905100745380000e-1 1.953328600360000e-1
2.002777349300000e-1 2.053477899280000e-1 2.105461939790000e-1 2.158761962560000e-1
2.213411281820000e-1 2.269444055190000e-1 2.326895304970000e-1 2.385800940070000e-1
2.446197778410000e-1 2.508123570000000e-1 2.571617020460000e-1 2.636717815280000e-1
2.703466644560000e-1 2.771905228500000e-1 2.842076343450000e-1 2.914023848620000e-1
2.987792713560000e-1 3.063429046200000e-1 3.140980121730000e-1 3.220494412070000e-1
3.302021616260000e-1 3.385612691450000e-1 3.471319884790000e-1 3.559196766050000e-1
3.649298261150000e-1 3.741680686460000e-1 3.836401784000000e-1 3.933520757550000e-1
4.033098309610000e-1 4.135196679400000e-1 4.239879681730000e-1 4.347212746890000e-1
4.457262961520000e-1 4.570099110600000e-1 4.685791720390000e-1 4.804413102550000e-1
4.926037399289999e-1 5.050740629760000e-1 5.178600737540000e-1 5.309697639360000e-1
5.444113275050000e-1 5.581931658750000e-1 5.723238931450000e-1 5.868123414789999e-1
6.016675666290000e-1 6.168988535940000e-1 6.325157224240000e-1 6.485279341709999e-1
6.649454969880000e-1 6.817786723859999e-1 6.990379816490000e-1 7.167342124050000e-1
7.348784253760000e-1 7.534819612850000e-1 7.725564479480001e-1 7.921138075400000e-1
8.121662640469999e-1 8.327263509070001e-1 8.538069188440000e-1 8.754211438990001e-1
8.975825356670001e-1 9.203049457380001e-1 9.436025763580000e-1 9.674899893060001e-1
9.919821149919999e-1 1.017094261790000e0 1.042842125610000e0 1.069241799710000e0
1.096309784740000e0 1.124062999070000e0 1.152518789370000e0 1.181694941430000e0
1.211609691300000e0 1.242281736660000e0 1.273730248550000e0 1.305974883310000e0
1.339035794880000e0 1.372933647410000e0 1.407689628170000e0 1.443325460770000e0
1.479863418760000e0 1.517326339570000e0 1.555737638730000e0 1.595121324560000e0
1.635502013140000e0 1.676904943720000e0 1.719355994480000e0 1.762881698700000e0
1.807509261380000e0 1.853266576180000e0 1.900182242920000e0 1.948285585420000e0
1.997606669830000e0 2.048176323430000e0 2.100026153920000e0 2.153188569110000e0
2.207696797250000e0 2.263584907750000e0 2.320887832510000e0 2.379641387710000e0
2.439882296250000e0 2.501648210640000e0 2.564977736600000e0 2.629910457150000e0
2.696486957340000e0 2.764748849660000e0 2.834738800000000e0 2.906500554380000e0
2.980078966220000e0 3.055520024420000e0 3.132870882110000e0 3.212179886070000e0
3.293496607040000e0 3.376871870590000e0 3.462357788990000e0 3.550007793720000e0
3.639876668880000e0 3.732020585440000e0 3.826497136360000e0 3.923365372560000e0
4.022685839820000e0 4.124520616690000e0 4.228933353210000e0 4.335989310730000e0
4.445755402730000e0 4.558300236570000e0 4.673694156450000e0 4.792009287310000e0
4.913319579970000e0 5.037700857320000e0 5.165230861680000e0 5.295989303480000e0
5.430057911000000e0 5.567520481470000e0 5.708462933480000e0 5.852973360650000e0
6.001142086700000e0 6.153061721910000e0 6.308827220990000e0 6.468535942460000e0
6.632287709460000e0 6.800184872180000e0 6.972332371810000e0 7.148837806140000e0
7.329811496810000e0 7.515366558270000e0 7.705618968480000e0 7.900687641380000e0
8.100694501250000e0 8.305764558880000e0 8.516025989739999e0 8.731610214050001e0
8.952651979000001e0 9.179289442860000e0 9.411664261429999e0 9.649921676550001e0
9.894210606840000e0 1.014468374080000e1 1.040149763240000e1 1.066481279860000e1
1.093479382000000e1 1.121160944350000e1 1.149543268780000e1 1.178644095180000e1
1.208481612500000e1 1.239074470170000e1 1.270441789720000e1 1.302603176750000e1
1.335578733170000e1 1.369389069770000e1 1.404055319110000e1 1.439599148740000e1
1.476042774690000e1 1.513408975440000e1 1.551721106050000e1 1.591003112870000e1
1.631279548430000e1 1.672575586810000e1 1.714917039370000e1 1.758330370910000e1
1.802842716170000e1 1.848481896820000e1 1.895276438830000e1 1.943255590300000e1
1.992449339780000e1 2.042888434960000e1 2.094604401900000e1 2.147629564790000e1
2.201997066060000e1 2.257740887190000e1 2.314895869860000e1 2.373497737810000e1
2.433583119100000e1 2.495189569070000e1 2.558355593740000e1 2.623120673940000e1
2.689525289950000e1 2.757610946820000e1 2.827420200300000e1 2.898996683440000e1
2.972385133880000e1 3.047631421790000e1 3.124782578550001e1 3.203886826140000e1
3.284993607290000e1 3.368153616380000e1 3.453418831120000e1 3.540842545050000e1
3.630479400840001e1 3.722385424430000e1 3.816618060090000e1 3.913236206280000e1
4.012300252480000e1 4.113872116950001e1 4.218015285420001e1 4.324794850740000e1
4.434277553630000e1 4.546531824340000e1 4.661627825440000e1 4.779637495680000e1
4.900634594950001e1 5.024694750360000e1 5.151895503570000e1 5.282316359170000e1
5.416038834450000e1 5.553146510310000e1 5.693725083510000e1 5.837862420230000e1
5.985648611000000e1
</PP_R>
<PP_RAB>
3.052606481460000e-5 3.129883582450000e-5 3.209116962560000e-5 3.290356145250000e-5
3.373651907630000e-5 3.459056312280000e-5 3.546622739730000e-5 3.636405921840000e-5
3.728461976030000e-5 3.822848440320000e-5 3.919624309330001e-5 4.018850071140000e-5
4.120587745060000e-5 4.224900920449999e-5 4.331854796460000e-5 4.441516222730000e-5
4.553953741220001e-5 4.669237629040000e-5 4.787439942370001e-5 4.908634561520000e-5
5.032897237050000e-5 5.160305637200000e-5 5.290939396340000e-5 5.424880164850000e-5
5.562211660049999e-5 5.703019718610001e-5 5.847392350140001e-5 5.995419792240000e-5
6.147194566870001e-5 6.302811538220000e-5 6.462367971950000e-5 6.625963596039998e-5
6.793700663059999e-5 6.965684014150000e-5 7.142021144510001e-5 7.322822270570001e-5
7.508200398930001e-5 7.698271396950002e-5 7.893154065190000e-5 8.092970211669998e-5
8.297844727979999e-5 8.507905667359999e-5 8.723284324740000e-5 8.944115318790001e-5
9.170536676070000e-5 9.402689917299998e-5 9.640720145810000e-5 9.884776138240001e-5
1.013501043750000e-4 1.039157944830000e-4 1.065464353450000e-4 1.092436711970000e-4
1.120091879000000e-4 1.148447139910000e-4 1.177520217670000e-4 1.207329283900000e-4
1.237892970240000e-4 1.269230379980000e-4 1.301361100020000e-4 1.334305213110000e-4
1.368083310400000e-4 1.402716504290000e-4 1.438226441660000e-4 1.474635317370000e-4
1.511965888160000e-4 1.550241486840000e-4 1.589486036930000e-4 1.629724067520000e-4
1.670980728710000e-4 1.713281807250000e-4 1.756653742700000e-4 1.801123643910000e-4
1.846719306040000e-4 1.893469227850000e-4 1.941402629560000e-4 1.990549471110000e-4
2.040940470880000e-4 2.092607124890000e-4 2.145581726460000e-4 2.199897386460000e-4
2.255588053940000e-4 2.312688537380000e-4 2.371234526440000e-4 2.431262614270000e-4
2.492810320380000e-4 2.555916114080000e-4 2.620619438560000e-4 2.686960735500000e-4
2.754981470360001e-4 2.824724158320000e-4 2.896232390840001e-4 2.969550862880000e-4
3.044725400880000e-4 3.121802991370000e-4 3.200831810350000e-4 3.281861253400000e-4
3.364941966580000e-4 3.450125878020000e-4 3.537466230449999e-4 3.627017614420000e-4
3.718836002470000e-4 3.812978784090000e-4 3.909504801560000e-4 4.008474386810001e-4
4.109949399030000e-4 4.213993263410000e-4 4.320671010760001e-4 4.430049318149999e-4
4.542196550570000e-4 4.657182803690000e-4 4.775079947670000e-4 4.895961672060000e-4
5.019903531869999e-4 5.146982994800000e-4 5.277279489650000e-4 5.410874455970001e-4
5.547851394970000e-4 5.688295921680000e-4 5.832295818519999e-4 5.979941090100001e-4
6.131324019520000e-4 6.286539226050001e-4 6.445683724240001e-4 6.608856984580001e-4
6.776160995680001e-4 6.947700327980000e-4 7.123582199150000e-4 7.303916541080000e-4
7.488816068619998e-4 7.678396349980000e-4 7.872775879020001e-4 8.072076149259999e-4
8.276421729860001e-4 8.485940343460001e-4 8.700762946020001e-4 8.921023808649998e-4
9.146860601570001e-4 9.378414480120000e-4 9.615830173010000e-4 9.859256072779999e-4
1.010884432850000e-3 1.036475094110000e-3 1.062713586040000e-3 1.089616308550000e-3
1.117200076730000e-3 1.145482131320000e-3 1.174480149530000e-3 1.204212256070000e-3
1.234697034470000e-3 1.265953538710000e-3 1.298001305120000e-3 1.330860364600000e-3
1.364551255130000e-3 1.399095034620000e-3 1.434513294040000e-3 1.470828170970000e-3
1.508062363390000e-3 1.546239143880000e-3 1.585382374170000e-3 1.625516520050000e-3
1.666666666670000e-3 1.708858534210000e-3 1.752118493960000e-3 1.796473584810000e-3
1.841951530130000e-3 1.888580755110000e-3 1.936390404550000e-3 1.985410361020000e-3
2.035671263600000e-3 2.087204526990000e-3 2.140042361150000e-3 2.194217791450001e-3
2.249764679290000e-3 2.306717743300000e-3 2.365112580990000e-3 2.424985691030000e-3
2.486374496070000e-3 2.549317366110000e-3 2.613853642480000e-3 2.680023662480000e-3
2.747868784500000e-3 2.817431413970000e-3 2.888755029780000e-3 2.961884211520000e-3
3.036864667320000e-3 3.113743262390000e-3 3.192568048360000e-3 3.273388293280000e-3
3.356254512450000e-3 3.441218499940001e-3 3.528333361020000e-3 3.617653545310000e-3
3.709234880820000e-3 3.803134608880000e-3 3.899411419880000e-3 3.998125489950000e-3
4.099338518590000e-3 4.203113767260000e-3 4.309516098860000e-3 4.418612018300000e-3
4.530469714100000e-3 4.645159100939999e-3 4.762751863440000e-3 4.883321500890000e-3
5.006943373240000e-3 5.133694748200000e-3 5.263654849480000e-3 5.396904906400001e-3
5.533528204560000e-3 5.673610137980000e-3 5.817238262440000e-3 5.964502350170000e-3
6.115494446030000e-3 6.270308925000000e-3 6.429042551160000e-3 6.591794538200000e-3
6.758666611410000e-3 6.929763071260000e-3 7.105190858609999e-3 7.285059621549999e-3
7.469481783899999e-3 7.658572615510001e-3 7.852450304320000e-3 8.051236030180000e-3
8.255054040659999e-3 8.464031728630001e-3 8.678299711970000e-3 8.897991915120000e-3
9.123245652880001e-3 9.354201716160000e-3 9.591004460010002e-3 9.833801893870000e-3
1.008274577400000e-2 1.033799169850000e-2 1.059969920430000e-2 1.086803186720000e-2
1.114315740380000e-2 1.142524777650000e-2 1.171447930100000e-2 1.201103275640000e-2
1.231509349820000e-2 1.262685157440000e-2 1.294650184380000e-2 1.327424409840000e-2
1.361028318760000e-2 1.395482914690000e-2 1.430809732860000e-2 1.467030853700000e-2
1.504168916570000e-2 1.542247133980000e-2 1.581289306060000e-2 1.621319835430000e-2
1.662363742470000e-2 1.704446680970000e-2 1.747594954120000e-2 1.791835531010000e-2
1.837196063440000e-2 1.883704903210000e-2 1.931391119870000e-2 1.980284518850000e-2
2.030415660120000e-2 2.081815877270000e-2 2.134517297110000e-2 2.188552859750000e-2
2.243956339170000e-2 2.300762364340000e-2 2.359006440900000e-2 2.418724973270000e-2
2.479955287480000e-2 2.542735654480000e-2 2.607105314030000e-2 2.673104499280000e-2
2.740774461850000e-2 2.810157497680000e-2 2.881296973430000e-2 2.954237353580000e-2
3.029024228240000e-2 3.105704341650000e-2 3.184325621370000e-2 3.264937208270000e-2
3.347589487200000e-2 3.432334118530000e-2 3.519224070420000e-2 3.608313651920000e-2
3.699658546910000e-2 3.793315848920000e-2 3.889344096820000e-2 3.987803311400000e-2
4.088755032850000e-2 4.192262359300000e-2 4.298389986200000e-2 4.407204246760000e-2
4.518773153440000e-2 4.633166440440000e-2 4.750455607290000e-2 4.870713963540000e-2
4.994016674570000e-2 5.120440808580000e-2 5.250065384790000e-2 5.382971422770000e-2
5.519241993120000e-2 5.658962269370001e-2 5.802219581270000e-2 5.949103469280001e-2
6.099705740610000e-2 6.254120526600000e-2 6.412444341510000e-2 6.574776142869999e-2
6.741217393339999e-2 6.911872124140000e-2 7.086847000010001e-2 7.266251385950000e-2
7.450197415549999e-2 7.638800061060000e-2 7.832177205260001e-2 8.030449715180000e-2
8.233741517590000e-2 8.442179676470001e-2 8.655894472469999e-2 8.875019484290000e-2
9.099691672190000e-2 9.330051463609999e-2 9.566242840910000e-2 9.808413431390001e-2
1.005671459960000e-1 1.031130154170000e-1 1.057233338300000e-1 1.083997327680000e-1
1.111438850680000e-1 1.139575059140000e-1 1.168423539110000e-1 1.198002321830000e-1
1.228329894990000e-1 1.259425214330000e-1 1.291307715420000e-1 1.323997325870000e-1
1.357514477750000e-1 1.391880120370000e-1 1.427115733370000e-1 1.463243340160000e-1
1.500285521680000e-1 1.538265430480000e-1 1.577206805250000e-1 1.617133985620000e-1
1.658071927370000e-1 1.700046218040000e-1 1.743083092950000e-1 1.787209451530000e-1
1.832452874200000e-1 1.878841639570000e-1 1.926404742120000e-1 1.975171910350000e-1
2.025173625310000e-1 2.076441139720000e-1 2.129006497430000e-1 2.182902553510000e-1
2.238162994750000e-1 2.294822360710000e-1 2.352916065360000e-1 2.412480419140000e-1
2.473552651710000e-1 2.536170935210000e-1 2.600374408110000e-1 2.666203199660000e-1
2.733698455000000e-1 2.802902360860000e-1 2.873858171950000e-1 2.946610237940000e-1
3.021204031250000e-1 3.097686175430000e-1 3.176104474310000e-1 3.256507941880000e-1
3.338946832910000e-1 3.423472674410000e-1 3.510138297780000e-1 3.598997871840000e-1
3.690106936740000e-1 3.783522438590000e-1 3.879302765130000e-1 3.977507782180000e-1
4.078198871070001e-1 4.181438967010000e-1 4.287292598430000e-1 4.395825927280000e-1
4.507106790440000e-1 4.621204742050001e-1 4.738191097070000e-1 4.858138975760000e-1
4.981123349450000e-1 5.107221087390000e-1 5.236511004760001e-1 5.369073911970000e-1
5.504992665160000e-1 5.644352217970000e-1 5.787239674649999e-1 5.933744344510000e-1
6.083957797760000e-1 6.237973922670000e-1 6.395888984350000e-1 6.557801684850000e-1
6.723813224880000e-1 6.894027367050000e-1 7.068550500750001e-1 7.247491708610000e-1
7.430962834710000e-1 7.619078554480000e-1 7.811956446370000e-1 8.009717065350001e-1
8.212484018220000e-1 8.420384040949999e-1 8.633547077810000e-1 8.852106362630000e-1
9.076198502100000e-1 9.305963561079999e-1 9.541545150230000e-1 9.783090515700000e-1
1.003075063120000e0 1.028468029240000e0 1.054503821350000e0 1.081198712680000e0
1.108569388410000e0 1.136632956080000e0 1.165406956360000e0 1.194909373920000e0
1.225158648740000e0 1.256173687590000e0 1.287973875890000e0 1.320579089790000e0
1.354009708610000e0 1.388286627580000e0 1.423431270880000e0 1.459465605060000e0
1.496412152750000e0
</PP_RAB>
</PP_MESH>
<PP_LOCAL columns="4">
-1.226910756030000e1 -1.226910864980000e1 -1.226910979530000e1 -1.226911099980000e1
-1.226911226560000e1 -1.226911359620000e1 -1.226911499550000e1 -1.226911646590000e1
-1.226911801240000e1 -1.226911963800000e1 -1.226912134650000e1 -1.226912314300000e1
-1.226912503160000e1 -1.226912701670000e1 -1.226912910390000e1 -1.226913129820000e1
-1.226913360480000e1 -1.226913602970000e1 -1.226913857890000e1 -1.226914125860000e1
-1.226914407610000e1 -1.226914703770000e1 -1.226915015140000e1 -1.226915342440000e1
-1.226915686540000e1 -1.226916048290000e1 -1.226916428590000e1 -1.226916828380000e1
-1.226917248650000e1 -1.226917690520000e1 -1.226918154970000e1 -1.226918643270000e1
-1.226919156650000e1 -1.226919696300000e1 -1.226920263570000e1 -1.226920860000000e1
-1.226921486960000e1 -1.226922146120000e1 -1.226922839010000e1 -1.226923567480000e1
-1.226924333260000e1 -1.226925138270000e1 -1.226925984590000e1 -1.226926874330000e1
-1.226927809610000e1 -1.226928792890000e1 -1.226929826560000e1 -1.226930913220000e1
-1.226932055580000e1 -1.226933256570000e1 -1.226934519050000e1 -1.226935846260000e1
-1.226937241530000e1 -1.226938708330000e1 -1.226940250300000e1 -1.226941871340000e1
-1.226943575470000e1 -1.226945366950000e1 -1.226947250260000e1 -1.226949230110000e1
-1.226951311470000e1 -1.226953499480000e1 -1.226955799700000e1 -1.226958217800000e1
-1.226960759810000e1 -1.226963432160000e1 -1.226966241480000e1 -1.226969194800000e1
-1.226972299470000e1 -1.226975563320000e1 -1.226978994420000e1 -1.226982601340000e1
-1.226986393170000e1 -1.226990379310000e1 -1.226994569690000e1 -1.226998974890000e1
-1.227003605820000e1 -1.227008474080000e1 -1.227013591810000e1 -1.227018971790000e1
-1.227024627460000e1 -1.227030572930000e1 -1.227036823020000e1 -1.227043393350000e1
-1.227050300340000e1 -1.227057561190000e1 -1.227065194010000e1 -1.227073217870000e1
-1.227081652760000e1 -1.227090519750000e1 -1.227099840910000e1 -1.227109639540000e1
-1.227119940030000e1 -1.227130768070000e1 -1.227142150640000e1 -1.227154116120000e1
-1.227166694280000e1 -1.227179916500000e1 -1.227193815680000e1 -1.227208426440000e1
-1.227223785170000e1 -1.227239930090000e1 -1.227256901360000e1 -1.227274741210000e1
-1.227293494020000e1 -1.227313206400000e1 -1.227333927400000e1 -1.227355708440000e1
-1.227378603630000e1 -1.227402669860000e1 -1.227427966880000e1 -1.227454557440000e1
-1.227482507490000e1 -1.227511886360000e1 -1.227542766860000e1 -1.227575225470000e1
-1.227609342590000e1 -1.227645202670000e1 -1.227682894300000e1 -1.227722510790000e1
-1.227764149990000e1 -1.227807914670000e1 -1.227853912840000e1 -1.227902257940000e1
-1.227953069100000e1 -1.228006471450000e1 -1.228062596340000e1 -1.228121581770000e1
-1.228183572590000e1 -1.228248720920000e1 -1.228317186480000e1 -1.228389136950000e1
-1.228464748280000e1 -1.228544205320000e1 -1.228627701970000e1 -1.228715441700000e1
-1.228807638230000e1 -1.228904515570000e1 -1.229006308930000e1 -1.229113265000000e1
-1.229225642680000e1 -1.229343713400000e1 -1.229467761870000e1 -1.229598086650000e1
-1.229735000830000e1 -1.229878832600000e1 -1.230029926000000e1 -1.230188641550000e1
-1.230355357150000e1 -1.230530468610000e1 -1.230714390600000e1 -1.230907557480000e1
-1.231110424010000e1 -1.231323466330000e1 -1.231547182700000e1 -1.231782094660000e1
-1.232028747800000e1 -1.232287712740000e1 -1.232559586100000e1 -1.232844991620000e1
-1.233144581100000e1 -1.233459035400000e1 -1.233789065730000e1 -1.234135414430000e1
-1.234498856160000e1 -1.234880199110000e1 -1.235280285970000e1 -1.235699995050000e1
-1.236140241270000e1 -1.236601977450000e1 -1.237086195010000e1 -1.237593925280000e1
-1.238126240340000e1 -1.238684253900000e1 -1.239269122170000e1 -1.239882044730000e1
-1.240524265110000e1 -1.241197071440000e1 -1.241901796960000e1 -1.242639820190000e1
-1.243412565420000e1 -1.244221502450000e1 -1.245068146430000e1 -1.245954057710000e1
-1.246880840870000e1 -1.247850143980000e1 -1.248863657340000e1 -1.249923111880000e1
-1.251030277430000e1 -1.252186960030000e1 -1.253394999630000e1 -1.254656266410000e1
-1.255972657510000e1 -1.257346092340000e1 -1.258778508110000e1 -1.260271854020000e1
-1.261828085400000e1 -1.263449156720000e1 -1.265137014260000e1 -1.266893587580000e1
-1.268720780620000e1 -1.270620461860000e1 -1.272594453430000e1 -1.274644519990000e1
-1.276772356160000e1 -1.278979573350000e1 -1.281267686260000e1 -1.283638097830000e1
-1.286092084150000e1 -1.288630778510000e1 -1.291255154830000e1 -1.293966010730000e1
-1.296763950390000e1 -1.299649366790000e1 -1.302622424240000e1 -1.305683040850000e1
-1.308830871070000e1 -1.312065288670000e1 -1.315385370120000e1 -1.318789878190000e1
-1.322277246640000e1 -1.325845564800000e1 -1.329492562600000e1 -1.333215595910000e1
-1.337011631020000e1 -1.340877228480000e1 -1.344808524320000e1 -1.348801208580000e1
-1.352850498480000e1 -1.356951105160000e1 -1.361097190210000e1 -1.365282310010000e1
-1.369499343650000e1 -1.373740399640000e1 -1.377996696910000e1 -1.382258413780000e1
-1.386514498720000e1 -1.390752435220000e1 -1.394957954010000e1 -1.399114684020000e1
-1.403203735060000e1 -1.407203204850000e1 -1.411087604330000e1 -1.414827197810000e1
-1.418387256050000e1 -1.421727225680000e1 -1.424799822800000e1 -1.427550065120000e1
-1.429914265950000e1 -1.431819022290000e1 -1.433180241300000e1 -1.433902261510000e1
-1.433877139650000e1 -1.432984187090000e1 -1.431089855120000e1 -1.428048078400000e1
-1.423701197790000e1 -1.417881585860000e1 -1.410414097510000e1 -1.401119455590000e1
-1.389818659720000e1 -1.376338468030000e1 -1.360517951550000e1 -1.342216050330000e1
-1.321319977070000e1 -1.297754213890000e1 -1.271489738220000e1 -1.242553000340000e1
-1.211034066360000e1 -1.177093249590000e1 -1.140965493500000e1 -1.102961756900000e1
-1.063466703010000e1 -1.022932120980000e1 -9.818657209550000e0 -9.408152440869999e0
-9.003482066560000e0 -8.610280333240000e0 -8.233877917390000e0 -7.879031723130000e0
-7.549667043300000e0 -7.248654003350000e0 -6.977640170350000e0 -6.736958692190000e0
-6.525626164210000e0 -6.341436787060000e0 -6.181149885400000e0 -6.040757524200000e0
-5.915809139070000e0 -5.801762298460000e0 -5.694324356410000e0 -5.589749877710000e0
-5.485063721140000e0 -5.378189128300000e0 -5.267972808600000e0 -5.154112863970000e0
-5.037008129900000e0 -4.917556904470000e0 -4.796937473970000e0 -4.676401687630000e0
-4.557106606660000e0 -4.439999511600000e0 -4.325760514740000e0 -4.214797007230000e0
-4.107277027850000e0 -4.003185344550000e0 -3.902386540620000e0 -3.804682773140000e0
-3.709858710910000e0 -3.617711020520000e0 -3.528063571530000e0 -3.440771754910000e0
-3.355719986610000e0 -3.272816012030000e0 -3.191984591230000e0 -3.113162018120000e0
-3.036292020340000e0 -2.961323015160000e0 -2.888206433630000e0 -2.816895772540000e0
-2.747346089080000e0 -2.679513740490000e0 -2.613356248660000e0 -2.548832224510000e0
-2.485901319920000e0 -2.424524192130000e0 -2.364662474240000e0 -2.306278748810000e0
-2.249336523270000e0 -2.193800206510000e0 -2.139635086370000e0 -2.086807307850000e0
-2.035283851830000e0 -1.985032514480000e0 -1.936021887070000e0 -1.888221336370000e0
-1.841600985460000e0 -1.796131695120000e0 -1.751785045560000e0 -1.708533318680000e0
-1.666349480740000e0 -1.625207165470000e0 -1.585080657580000e0 -1.545944876700000e0
-1.507775361700000e0 -1.470548255370000e0 -1.434240289580000e0 -1.398828770660000e0
-1.364291565250000e0 -1.330607086490000e0 -1.297754280470000e0 -1.265712613120000e0
-1.234462057350000e0 -1.203983080560000e0 -1.174256632380000e0 -1.145264132830000e0
-1.116987460640000e0 -1.089408941970000e0 -1.062511339360000e0 -1.036277840920000e0
-1.010692049860000e0 -9.857379742390000e-1 -9.614000169380001e-1 -9.376629659440001e-1
-9.145119848269999e-1 -8.919326034710000e-1 -8.699107090260000e-1 -8.484325370930000e-1
-8.274846631140001e-1 -8.070539939869999e-1 -7.871277598770000e-1 -7.676935062409999e-1
-7.487390860370001e-1 -7.302526521340001e-1 -7.122226499120000e-1 -6.946378100300000e-1
-6.774871413920000e-1 -6.607599242710000e-1 -6.444457036130000e-1 -6.285342824980001e-1
-6.130157157700000e-1 -5.978803038190001e-1 -5.831185865210000e-1 -5.687213373220001e-1
-5.546795574720001e-1 -5.409844704020000e-1 -5.276275162370000e-1 -5.146003464450000e-1
-5.018948186210000e-1 -4.895029913960000e-1 -4.774171194760000e-1 -4.656296487970000e-1
-4.541332118060001e-1 -4.429206228560000e-1 -4.319848737130000e-1 -4.213191291790000e-1
-4.109167228150000e-1 -4.007711527800000e-1 -3.908760777610000e-1 -3.812253130150000e-1
-3.718128265000000e-1 -3.626327351050000e-1 -3.536793009740000e-1 -3.449469279190000e-1
-3.364301579230000e-1 -3.281236677270000e-1 -3.200222655060000e-1 -3.121208876170000e-1
-3.044145954440000e-1 -2.968985723030000e-1 -2.895681204340000e-1 -2.824186580670000e-1
-2.754457165540000e-1 -2.686449375810000e-1 -2.620120704390000e-1 -2.555429693700000e-1
-2.492335909760000e-1 -2.430799916890000e-1 -2.370783253100000e-1 -2.312248406020000e-1
-2.255158789470000e-1 -2.199478720560000e-1 -2.145173397460000e-1 -2.092208877560000e-1
-2.040552056320000e-1 -1.990170646540000e-1 -1.941033158200000e-1 -1.893108878770000e-1
-1.846367854010000e-1 -1.800780869270000e-1 -1.756319431190000e-1 -1.712955749920000e-1
-1.670662721770000e-1
</PP_LOCAL>
<PP_NONLOCAL>
<PP_BETA.1 index="1" label="3S" angular_momentum="0" cutoff_radius_index="362" cutoff_radius="0.000000000000e0" ultrasoft_cutoff_radius="0.000000000000e0">
4.823475950610001e-3 4.945583417340000e-3 5.070782306160000e-3 5.199150437390000e-3
5.330768391930000e-3 5.465718303830000e-3 5.604084723000000e-3 5.745953751750000e-3
5.891414426449999e-3 6.040557508320000e-3 6.193476174340001e-3 6.350266190219999e-3
6.511025564310000e-3 6.675854548159999e-3 6.844856326840000e-3 7.018136673559999e-3
7.195803604410001e-3 7.377968586710000e-3 7.564744985740001e-3 7.756250135269999e-3
7.952603267409999e-3 8.153927237170000e-3 8.360348178540001e-3 8.571994813180000e-3
8.788999659330001e-3 9.011498340690000e-3 9.239629759300000e-3 9.473536785929999e-3
9.713365569390000e-3 9.959266055259999e-3 1.021139181120000e-2 1.046990089240000e-2
1.073495445940000e-2 1.100671833060000e-2 1.128536263880000e-2 1.157106148560000e-2
1.186399345770000e-2 1.216434180150000e-2 1.247229424810000e-2 1.278804336140000e-2
1.311178670740000e-2 1.344372651130000e-2 1.378407052040000e-2 1.413303131200000e-2
1.449082750190000e-2 1.485768253830000e-2 1.523382607950000e-2 1.561949313310000e-2
1.601492509000000e-2 1.642036920810000e-2 1.683607895470000e-2 1.726231383770000e-2
1.769934233600000e-2 1.814743637850000e-2 1.860687721110000e-2 1.907794953020000e-2