<UPF version="2.0.1">
<PP_INFO>
Generated by new atomic code, or converted to UPF format
Author:
Generation date:
Pseudopotential type: NC
Element: Pb
Functional:  SLA  PZ   NOGX NOGC
Suggested minimum cutoff for wavefunctions:   0. Ry
Suggested minimum cutoff for charge density:   0. Ry
The Pseudo was generated with a Scalar-Relativistic Calculation
L component and cutoff radius for Local Potential:  0   0.0000
Valence configuration:
nl pn  l   occ       Rcut    Rcut US       E pseu
6S  0  0  2.00      0.000      0.000     0.000000
6P  0  1  2.00      0.000      0.000     0.000000
6D  0  2  0.00      0.000      0.000     0.000000
Generation configuration: not available.
</PP_INFO>
<!--
END OF HUMAN READABLE SECTION
-->
<PP_HEADER generated="Generated by new atomic code, or converted to UPF format" author="" date="" comment="" element="Pb" pseudo_type="NC" relativistic="scalar" is_ultrasoft="false" is_paw="false" is_coulomb="false" has_so="false" has_wfc="false" has_gipaw="false" paw_as_gipaw="false" core_correction="false" functional=" SLA  PZ   NOGX NOGC" z_valence="4.000000000000e0" total_psenergy="0.000000000000e0" wfc_cutoff="0.000000000000e0" rho_cutoff="0.000000000000e0" l_max="2" l_max_rho="0" l_local="0" mesh_size="331" number_of_wfc="3" number_of_proj="3"/>
<PP_MESH dx="4.250000000000e-2" mesh="331" xmin="-5.000000000000e0" rmax="1.013196887050e2" zmesh="8.200000000000e1">
<PP_R>
8.217008535469999e-5 8.573758641270000e-5 8.945997429770001e-5 9.334397358500000e-5
9.739660080430001e-5 1.016251771150000e-4 1.060373415340000e-4 1.106410647320000e-4
1.154446634350000e-4 1.204568154510000e-4 1.256865753410000e-4 1.311433907820000e-4
1.368371196290000e-4 1.427780477290000e-4 1.489769074980000e-4 1.554448973120000e-4
1.621937017370001e-4 1.692355126350000e-4 1.765830511920000e-4 1.842495908970000e-4
1.922489815230000e-4 2.005956741420000e-4 2.093047472390000e-4 2.183919339440000e-4
2.278736504600000e-4 2.377670257150000e-4 2.480899323070000e-4 2.588610187940000e-4
2.700997433790000e-4 2.818264090640000e-4 2.940622003270000e-4 3.068292213940000e-4
3.201505361670001e-4 3.340502098929999e-4 3.485533526380000e-4 3.636861646450000e-4
3.794759836710000e-4 3.959513343710000e-4 4.131419798250000e-4 4.310789753120000e-4
4.497947244050000e-4 4.693230375170000e-4 4.896991929710000e-4 5.109600007390000e-4
5.331438689360001e-4 5.562908732050000e-4 5.804428291160000e-4 6.056433677070001e-4
6.319380143019999e-4 6.593742707550000e-4 6.880017012659999e-4 7.178720219130000e-4
7.490391940849999e-4 7.815595219620000e-4 8.154917542269999e-4 8.508971902010000e-4
8.878397905780000e-4 9.263862929770001e-4 9.666063324970001e-4 1.008572567520000e-3
1.052360810970000e-3 1.098050167260000e-3 1.145723175230000e-3 1.195465957190000e-3
1.247368374580000e-3 1.301524190250000e-3 1.358031237860000e-3 1.416991598650000e-3
1.478511785770000e-3 1.542702936810000e-3 1.609681014490000e-3 1.679567016150000e-3
1.752487192410000e-3 1.828573275150000e-3 1.907962715550000e-3 1.990798932370000e-3
2.077231571040000e-3 2.167416774030000e-3 2.261517462880000e-3 2.359703632540000e-3
2.462152658470000e-3 2.569049617090000e-3 2.680587620090000e-3 2.796968163320000e-3
2.918401490780001e-3 3.045106974420000e-3 3.177313510489999e-3 3.315259932980000e-3
3.459195445120000e-3 3.609380069570000e-3 3.766085118150000e-3 3.929593681940000e-3
4.100201142770000e-3 4.278215706720000e-3 4.463958961020000e-3 4.657766454930000e-3
4.859988305910000e-3 5.070989832170001e-3 5.291152212600000e-3 5.520873175340001e-3
5.760567716350000e-3 6.010668849070000e-3 6.271628386670001e-3 6.543917758259999e-3
6.828028860550001e-3 7.124474946479999e-3 7.433791552390002e-3 7.756537465499999e-3
8.093295733370001e-3 8.444674717180000e-3 8.811309190759999e-3 9.193861487310000e-3
9.593022695929999e-3 1.000951391010000e-2 1.044408753030000e-2 1.089752862330000e-2
1.137065634030000e-2 1.186432539700000e-2 1.237942761730000e-2 1.291689354460000e-2
1.347769412290000e-2 1.406284245070000e-2 1.467339561130000e-2 1.531045658240000e-2
1.597517622850000e-2 1.666875538020000e-2 1.739244700340000e-2 1.814755846300000e-2
1.893545388430000e-2 1.975755661760000e-2 2.061535180950000e-2 2.151038908580000e-2
2.244428535100000e-2 2.341872770910000e-2 2.443547651150000e-2 2.549636853720000e-2
2.660332031100000e-2 2.775833156530000e-2 2.896348885340000e-2 3.022096931820000e-2
3.153304462580000e-2 3.290208506890000e-2 3.433056384910000e-2 3.582106154450000e-2
3.737627077190000e-2 3.899900105070000e-2 4.069218387890000e-2 4.245887802810000e-2
4.430227507020001e-2 4.622570514210000e-2 4.823264296240000e-2 5.032671410839999e-2
5.251170156520000e-2 5.479155256060000e-2 5.717038569540000e-2 5.965249838359999e-2
6.224237461630000e-2 6.494469306149999e-2 6.776433551659999e-2 7.070639572749999e-2
7.377618859040000e-2 7.697925975330000e-2 8.032139563430000e-2 8.380863387520000e-2
8.744727424810000e-2 9.124389003659999e-2 9.520533991019999e-2 9.933878031479999e-2
1.036516784010000e-1 1.081518255140000e-1 1.128473512670000e-1 1.177467382310000e-1
1.228588372560000e-1 1.281928834610000e-1 1.337585129160000e-1 1.395657800530000e-1
1.456251758270000e-1 1.519476466710000e-1 1.585446142640000e-1 1.654279961750000e-1
1.726102273830000e-1 1.801042827450000e-1 1.879237004380000e-1 1.960826064100000e-1
2.045957399040000e-1 2.134784800820000e-1 2.227468738070000e-1 2.324176646380000e-1
2.425083230680000e-1 2.530370780930000e-1 2.640229501400000e-1 2.754857854280000e-1
2.874462918180000e-1 2.999260762280000e-1 3.129476836610000e-1 3.265346379370000e-1
3.407114841860000e-1 3.555038331900000e-1 3.709384076530000e-1 3.870430904710000e-1
4.038469751060000e-1 4.213804181440000e-1 4.396750941320001e-1 4.587640528050000e-1
4.786817787840000e-1 4.994642538770000e-1 5.211490220800000e-1 5.437752574019999e-1
5.673838346320000e-1 5.920174031810000e-1 6.177204641319999e-1 6.445394506260000e-1
6.725228117499999e-1 7.017211000570000e-1 7.321870628960000e-1 7.639757376940000e-1
7.971445513899999e-1 8.317534241720001e-1 8.678648777239999e-1 9.055441481799999e-1
9.448593039670000e-1 9.858813687730001e-1 1.028684449860000e0 1.073345871920000e0
1.119946316810000e0 1.168569969230000e0 1.219304668890000e0 1.272242069130000e0
1.327477802530000e0 1.385111653640000e0 1.445247739280000e0 1.507994696600000e0
1.573465879360000e0 1.641779562680000e0 1.713059156720000e0 1.787433429640000e0
1.865036740190000e0 1.946009280440000e0 2.030497329060000e0 2.118653515570000e0
2.210637096040000e0 2.306614240820000e0 2.406758334730000e0 2.511250290270000e0
2.620278874440000e0 2.734041049770000e0 2.852742330120000e0 2.976597151940000e0
3.105829261690000e0 3.240672120000000e0 3.381369323450000e0 3.528175044620000e0
3.681354491250000e0 3.841184385380000e0 4.007953463190000e0 4.181962996700000e0
4.363527337910000e0 4.552974486800000e0 4.750646683790000e0 4.956901028030000e0
5.172110122500000e0 5.396662747150000e0 5.630964561210000e0 5.875438836030000e0
6.130527219760000e0 6.396690535130000e0 6.674409612010000e0 6.964186155990000e0
7.266543654730000e0 7.582028323690000e0 7.911210092820000e0 8.254683636190000e0
8.613069446280001e0 8.987014954919999e0 9.377195702830001e0 9.784316560090000e0
1.020911299940000e1 1.065235242490000e1 1.111483555830000e1 1.159739788550000e1
1.210091116590000e1 1.262628500730000e1 1.317446850890000e1 1.374645197640000e1
1.434326871040000e1 1.496599687330000e1 1.561576143720000e1 1.629373621610000e1
1.700114598620000e1 1.773926869870000e1 1.850943778860000e1 1.931304458310000e1
2.015154081540000e1 2.102644124750000e1 2.193932640600000e1 2.289184543810000e1
2.388571909010000e1 2.492274281660000e1 2.600479002380000e1 2.713381545340000e1
2.831185871480000e1 2.954104796880000e1 3.082360377270000e1 3.216184309180000e1
3.355818348450000e1 3.501514747050000e1 3.653536708700000e1 3.812158864410000e1
3.977667768570000e1 4.150362416650000e1 4.330554785300000e1 4.518570395990000e1
4.714748903030000e1 4.919444707190000e1 5.133027595920001e1 5.355883411390000e1
5.588414747510001e1 5.831041677230001e1 6.084202511410000e1 6.348354590630001e1
6.623975111420001e1 6.911561988270001e1 7.211634753190001e1 7.524735494180000e1
7.851429834590000e1 8.192307954900000e1 8.547985658900000e1 8.919105486150000e1
9.306337872740000e1 9.710382362460001e1 1.013196887050000e2
</PP_R>
<PP_RAB>
3.492228627570000e-6 3.643847422540001e-6 3.802048907650000e-6 3.967118877360001e-6
4.139355534180000e-6 4.319070027410000e-6 4.506587015200000e-6 4.702245251100000e-6
4.906398196010000e-6 5.119414656680000e-6 5.341679452010001e-6 5.573594108230000e-6
5.815577584240000e-6 6.068067028480000e-6 6.331518568670001e-6 6.606408135780000e-6
6.893232323830000e-6 7.192509287000000e-6 7.504779675670001e-6 7.830607613140001e-6
8.170581714710000e-6 8.525316151039998e-6 8.895451757660000e-6 9.281657192640001e-6
9.684630144560000e-6 1.010509859290000e-5 1.054382212300000e-5 1.100159329870000e-5
1.147923909360000e-5 1.197762238520000e-5 1.249764351390000e-5 1.304024190920000e-5
1.360639778710000e-5 1.419713392050000e-5 1.481351748710000e-5 1.545666199740000e-5
1.612772930600000e-5 1.682793171080000e-5 1.755853414260000e-5 1.832085645070000e-5
1.911627578720000e-5 1.994622909450000e-5 2.081221570130000e-5 2.171580003140000e-5
2.265861442980000e-5 2.364236211119999e-5 2.466882023740000e-5 2.573984312750000e-5
2.685736560780000e-5 2.802340650710000e-5 2.924007230379999e-5 3.050956093130001e-5
3.183416574860000e-5 3.321627968340000e-5 3.465839955460001e-5 3.616313058350000e-5
3.773319109959999e-5 3.937141745150001e-5 4.108076913109999e-5 4.286433411960000e-5
4.472533446610000e-5 4.666713210870000e-5 4.869323494710001e-5 5.080730318060001e-5
5.301315591960000e-5 5.531477808560000e-5 5.771632760930000e-5 6.022214294240000e-5
6.283675089539999e-5 6.556487481460000e-5 6.841144311560000e-5 7.138159818660000e-5
7.448070567749999e-5 7.771436419389999e-5 8.108841541080000e-5 8.460895462549999e-5
8.828234176930000e-5 9.211521289629999e-5 9.611449217230000e-5 1.002874043830000e-4
1.046414879850000e-4 1.091846087260000e-4 1.139249738540000e-4 1.188711469410000e-4
1.240320633580000e-4 1.294170464130000e-4 1.350358241960000e-4 1.408985471510000e-4
1.470158064180000e-4 1.533986529570000e-4 1.600586175210000e-4 1.670077314830000e-4
1.742585485680000e-4 1.818241675360000e-4 1.897182558440000e-4 1.979550743340000e-4
2.065495030010000e-4 2.155170678670000e-4 2.248739690349999e-4 2.346371099520000e-4
2.448241279450000e-4 2.554534260860000e-4 2.665442064330001e-4 2.781165047260000e-4
2.901912265740000e-4 3.027901852260000e-4 3.159361409770000e-4 3.296528422840000e-4
3.439650686680000e-4 3.588986754800000e-4 3.744806406070000e-4 3.907391132110000e-4
4.077034645770000e-4 4.254043411790000e-4 4.438737200369999e-4 4.631449664890000e-4
4.832528944630000e-4 5.042338293720000e-4 5.261256737340001e-4 5.489679756440000e-4
5.728020002220001e-4 5.976708041550001e-4 6.236193134810000e-4 6.506944047509999e-4
6.789449897090000e-4 7.084221036570000e-4 7.391789976460000e-4 7.712712346780002e-4
8.047567900820001e-4 8.396961562469997e-4 8.761524519040000e-4 9.141915361479999e-4
9.538821274170001e-4 9.952959276350002e-4 1.038507751740000e-3 1.083595662830000e-3
1.130641113220000e-3 1.179729091530000e-3 1.230948276270000e-3 1.284391196020000e-3
1.340154396600000e-3 1.398338615430000e-3 1.459048963590000e-3 1.522395115640000e-3
1.588491507800000e-3 1.657457544660000e-3 1.729417814850000e-3 1.804502316200000e-3
1.882846690480000e-3 1.964592468540000e-3 2.049887325900000e-3 2.138885349610000e-3
2.231747316520000e-3 2.328640983830000e-3 2.429741392050000e-3 2.535231181300000e-3
2.645300921190000e-3 2.760149455110000e-3 2.879984259460000e-3 3.005021818420000e-3
3.135488015090000e-3 3.271618539510000e-3 3.413659314460000e-3 3.561866939700000e-3
3.716509155550001e-3 3.877865326559999e-3 4.046226946179999e-3 4.221898163380000e-3
4.405196332040000e-3 4.596452584330001e-3 4.796012428850000e-3 5.004236374830000e-3
5.221500583390000e-3 5.448197547069999e-3 5.684736798910000e-3 5.931545652240001e-3
6.189069972670000e-3 6.457774983500000e-3 6.738146106230001e-3 7.030689837430000e-3
7.335934663760000e-3 7.654432016680000e-3 7.986757268620000e-3 8.333510772440000e-3
8.695318945930000e-3 9.072835403470002e-3 9.466742136820001e-3 9.877750747099999e-3
1.030660373040000e-2 1.075407581900000e-2 1.122097538100000e-2 1.170814588070000e-2
1.221646740230000e-2 1.274685823970000e-2 1.330027655560000e-2 1.387772211230000e-2
1.448023807790000e-2 1.510891291060000e-2 1.576488232530000e-2 1.644933134500000e-2
1.716349644200000e-2 1.790866777110000e-2 1.868619150060000e-2 1.949747224420000e-2
2.034397559830000e-2 2.122723078980000e-2 2.214883343840000e-2 2.311044843960000e-2
2.411381297180000e-2 2.516073963520000e-2 2.625311972560000e-2 2.739292665160000e-2
2.858221949940000e-2 2.982314675240000e-2 3.111795017310000e-2 3.246896885200000e-2
3.387864343410000e-2 3.534952052730000e-2 3.688425730330000e-2 3.848562629770000e-2
4.015652041860001e-2 4.189995817280000e-2 4.371908911889999e-2 4.561719955670000e-2
4.759771846430000e-2 4.966422369240000e-2 5.182044842800000e-2 5.407028793820000e-2
5.641780660749999e-2 5.886724527969999e-2 6.142302891930001e-2 6.408977460550000e-2
6.687229987270000e-2 6.977563141380000e-2 7.280501416080000e-2 7.596592075989999e-2
7.926406145810000e-2 8.270539441879999e-2 8.629613648530000e-2 9.004277441170000e-2
9.395207658160000e-2 9.803110523490000e-2 1.022872292260000e-1 1.067281373370000e-1
1.113618521640000e-1 1.161967446150000e-1 1.212415490300000e-1 1.265053789570000e-1
1.319977436220000e-1 1.377285651000000e-1 1.437081962470000e-1 1.499474393960000e-1
1.564575658780000e-1 1.632503363790000e-1 1.703380221860000e-1 1.777334273600000e-1
1.854499118610000e-1 1.935014156890000e-1 2.019024840610000e-1 2.106682936910000e-1
2.198146802060000e-1 2.293581667540000e-1 2.393159938510000e-1 2.497061505310000e-1
2.605474068400000e-1 2.718593477430000e-1 2.836624085100000e-1 2.959779116290000e-1
3.088281053260000e-1 3.222362037570000e-1 3.362264289450000e-1 3.508240545380000e-1
3.660554514670000e-1 3.819481355840000e-1 3.985308173700000e-1 4.158334538040000e-1
4.338873024760000e-1 4.527249780600000e-1 4.723805112300000e-1 4.928894101350000e-1
5.142887245510001e-1 5.366171128090000e-1 5.599149116300000e-1 5.842242089970000e-1
6.095889201900000e-1 6.360548671140000e-1 6.636698610810000e-1 6.924837891830000e-1
7.225487044120000e-1 7.539189196960000e-1 7.866511060150000e-1 8.208043947800000e-1
8.564404846550000e-1 8.936237530180000e-1 9.324213722560000e-1 9.729034311180001e-1
1.015143061330000e0 1.059216569710000e0 1.105203576010000e0 1.153187156770000e0
1.203253995380000e0 1.255494538670000e0 1.310003160340000e0 1.366878331400000e0
1.426222798090000e0 1.488143767500000e0 1.552753101200000e0 1.620167517370000e0
1.690508801640000e0 1.763904027070000e0 1.840485783750000e0 1.920392418290000e0
2.003768283790000e0 2.090764000550000e0 2.181536728270000e0 2.276250449840000e0
2.375076267690000e0 2.478192712820000e0 2.585786067350000e0 2.698050701020000e0
2.815189422350000e0 2.937413845020000e0 3.064944770100000e0 3.198012585030000e0
3.336857679700000e0 3.481730880830000e0 3.632893905030000e0 3.790619831610000e0
3.955193595910000e0 4.126912504040000e0 4.306086769970000e0
</PP_RAB>
</PP_MESH>
<PP_LOCAL columns="4">
-7.650226819440000e0 -7.650226822540000e0 -7.650226825920000e0 -7.650226829570000e0
-7.650226833580000e0 -7.650226837920000e0 -7.650226842660000e0 -7.650226847800000e0
-7.650226853420000e0 -7.650226859530000e0 -7.650226866160000e0 -7.650226873410000e0
-7.650226881300000e0 -7.650226889880000e0 -7.650226899220000e0 -7.650226909410000e0
-7.650226920490000e0 -7.650226932530000e0 -7.650226945680000e0 -7.650226959960000e0
-7.650226975520000e0 -7.650226992480000e0 -7.650227010910000e0 -7.650227030990000e0
-7.650227052870000e0 -7.650227076680000e0 -7.650227102590000e0 -7.650227130810000e0
-7.650227161500000e0 -7.650227194950000e0 -7.650227231360000e0 -7.650227271000000e0
-7.650227314160000e0 -7.650227361150000e0 -7.650227412290000e0 -7.650227468000000e0
-7.650227528630000e0 -7.650227594650000e0 -7.650227666520000e0 -7.650227744760000e0
-7.650227829940000e0 -7.650227922680000e0 -7.650228023660000e0 -7.650228133600000e0
-7.650228253280000e0 -7.650228383570000e0 -7.650228525430000e0 -7.650228679870000e0
-7.650228848040000e0 -7.650229031090000e0 -7.650229230410000e0 -7.650229447380000e0
-7.650229683620000e0 -7.650229940820000e0 -7.650230220840000e0 -7.650230525690000e0
-7.650230857590000e0 -7.650231218940000e0 -7.650231612350000e0 -7.650232040660000e0
-7.650232506970000e0 -7.650233014640000e0 -7.650233567350000e0 -7.650234169110000e0
-7.650234824260000e0 -7.650235537520000e0 -7.650236314040000e0 -7.650237159490000e0
-7.650238079910000e0 -7.650239082000000e0 -7.650240173000000e0 -7.650241360780000e0
-7.650242653920000e0 -7.650244061800000e0 -7.650245594580000e0 -7.650247263350000e0
-7.650249080180000e0 -7.650251058180000e0 -7.650253211650000e0 -7.650255556180000e0
-7.650258108700000e0 -7.650260887670000e0 -7.650263913190000e0 -7.650267207120000e0
-7.650270793280000e0 -7.650274697570000e0 -7.650278948260000e0 -7.650283576030000e0
-7.650288614370000e0 -7.650294099700000e0 -7.650300071640000e0 -7.650306573400000e0
-7.650313651940000e0 -7.650321358490000e0 -7.650329748710000e0 -7.650338883280000e0
-7.650348828200000e0 -7.650359655380000e0 -7.650371443090000e0 -7.650384276530000e0
-7.650398248480000e0 -7.650413459910000e0 -7.650430020810000e0 -7.650448050870000e0
-7.650467680410000e0 -7.650489051330000e0 -7.650512318090000e0 -7.650537648880000e0
-7.650565226730000e0 -7.650595251020000e0 -7.650627938740000e0 -7.650663526130000e0
-7.650702270400000e0 -7.650744451540000e0 -7.650790374400000e0 -7.650840370820000e0
-7.650894802110000e0 -7.650954061590000e0 -7.651018577450000e0 -7.651088815870000e0
-7.651165284320000e0 -7.651248535250000e0 -7.651339170080000e0 -7.651437843570000e0
-7.651545268500000e0 -7.651662220730000e0 -7.651789544950000e0 -7.651928160690000e0
-7.652079068830000e0 -7.652243358970000e0 -7.652422217200000e0 -7.652616934640000e0
-7.652828916620000e0 -7.653059692970000e0 -7.653310928780000e0 -7.653584436530000e0
-7.653882188950000e0 -7.654206333220000e0 -7.654559206310000e0 -7.654943351690000e0
-7.655361537540000e0 -7.655816776400000e0 -7.656312346710000e0 -7.656851816180000e0
-7.657439067020000e0 -7.658078323630000e0 -7.658774182400000e0 -7.659531644270000e0
-7.660356149970000e0 -7.661253618340000e0 -7.662230487940000e0 -7.663293761910000e0
-7.664451057230000e0 -7.665710657340000e0 -7.667081569710000e0 -7.668573588110000e0
-7.670197359740000e0 -7.671964458120000e0 -7.673887461880000e0 -7.675980039540000e0
-7.678257041540000e0 -7.680734599040000e0 -7.683430230440000e0 -7.686362956250000e0
-7.689553422060000e0 -7.693024030710000e0 -7.696799083990000e0 -7.700904933490000e0
-7.705370142150000e0 -7.710225655370000e0 -7.715504982700000e0 -7.721244389730000e0
-7.727483099510000e0 -7.734263503490000e0 -7.741631380530000e0 -7.749636122830000e0
-7.758330966550000e0 -7.767773224760000e0 -7.778024518540000e0 -7.789151002140000e0
-7.801223575630000e0 -7.814318077520000e0 -7.828515447560000e0 -7.843901847640000e0
-7.860568725400000e0 -7.878612802470000e0 -7.898135964100000e0 -7.919245023340000e0
-7.942051326210000e0 -7.966670159090000e0 -7.993219911380000e0 -8.021820939860000e0
-8.052594071560000e0 -8.085658674850000e0 -8.121130219199999e0 -8.159117236909999e0
-8.199717595990000e0 -8.243013990550001e0 -8.289068560090000e0 -8.337916560609999e0
-8.389559033990000e0 -8.443954460200001e0 -8.501009433200000e0 -8.560568482440001e0
-8.622403266379999e0 -8.686201501070000e0 -8.751556146710000e0 -8.817955559780000e0
-8.884775507560001e0 -8.951274114449999e0 -9.016590926119999e0 -9.079751281100000e0
-9.139676998510000e0 -9.195203936710000e0 -9.245106158390000e0 -9.288125176090000e0
-9.323001016750000e0 -9.348499700950001e0 -9.363429405420000e0 -9.366635513829999e0
-9.356963695339999e0 -9.333181108130001e0 -9.293850045230000e0 -9.237157040830001e0
-9.160714391570000e0 -9.061369851160000e0 -8.935081630299999e0 -8.776934814150000e0
-8.581384023989999e0 -8.342795628890000e0 -8.056321455270000e0 -7.719059870540000e0
-7.331354868720000e0 -6.897970423230000e0 -6.428793714180000e0 -5.938714936820000e0
-5.446444884360000e0 -4.972275068010000e0 -4.535115444020000e0 -4.149458213160000e0
-3.823074071890000e0 -3.556135574280000e0 -3.342063528780000e0 -3.169828738430000e0
-3.026945113930000e0 -2.902194868960000e0 -2.787330827900000e0 -2.677495341640000e0
-2.570617691880000e0 -2.466347484190000e0 -2.365056855510000e0 -2.267200421400000e0
-2.173051929330000e0 -2.082682830520000e0 -1.996032446590000e0 -1.912978566100000e0
-1.833379693320000e0 -1.757093255560000e0 -1.683981303860000e0 -1.613911594680000e0
-1.546757477800000e0 -1.482397617950000e0 -1.420715742960000e0 -1.361600422250000e0
-1.304944862530000e0 -1.250646714280000e0 -1.198607886700000e0 -1.148734370510000e0
-1.100936068110000e0 -1.055126630830000e0 -1.011223302900000e0 -9.691467720129999e-1
-9.288210259880000e-1 -8.901732154819999e-1 -8.531335223799999e-1 -8.176350336650000e-1
-7.836136205410000e-1 -7.510078225780000e-1 -7.197587366910000e-1 -6.898099107200000e-1
-6.611072414560000e-1 -6.335988768980000e-1 -6.072351225840000e-1 -5.819683518140000e-1
-5.577529196130000e-1 -5.345450802740000e-1 -5.123029083260001e-1 -4.909862227980001e-1
-4.705565146320000e-1 -4.509768771120000e-1 -4.322119391940000e-1 -4.142278016080000e-1
-3.969919756150000e-1 -3.804733243180000e-1 -3.646420064110000e-1 -3.494694222730000e-1
-3.349281622970000e-1 -3.209919573800000e-1 -3.076356314620000e-1 -2.948350560480000e-1
-2.825671066180000e-1 -2.708096208520000e-1 -2.595413585960000e-1 -2.487419634870000e-1
-2.383919261810000e-1 -2.284725491090000e-1 -2.189659126990000e-1 -2.098548430050000e-1
-2.011228806790000e-1 -1.927542512410000e-1 -1.847338365780000e-1 -1.770471476360000e-1
-1.696802982420000e-1 -1.626199800220000e-1 -1.558534383560000e-1 -1.493684493390000e-1
-1.431532976960000e-1 -1.371967556200000e-1 -1.314880624860000e-1 -1.260169054170000e-1
-1.207734006460000e-1 -1.157480756680000e-1 -1.109318521220000e-1 -1.063160293970000e-1
-1.018922689060000e-1 -9.765257902949999e-2 -9.358930067539999e-2 -8.969509344210000e-2
-8.596292235890001e-2 -8.238604517710002e-2 -7.895800018970000e-2
</PP_LOCAL>
<PP_NONLOCAL>
<PP_BETA.1 index="1" label="6S" angular_momentum="0" cutoff_radius_index="277" cutoff_radius="0.000000000000e0" ultrasoft_cutoff_radius="0.000000000000e0">
1.195867010490000e-4 1.247786843380000e-4 1.301960832490000e-4 1.358486847920000e-4
1.417466990340000e-4 1.479007803660000e-4 1.543220487790000e-4 1.610221040390000e-4
1.680130493270000e-4 1.753075148700000e-4 1.829186744860000e-4 1.908602833970000e-4
1.991466853220000e-4 2.077928502900000e-4 2.168143959140000e-4 2.262276228350000e-4
2.360495336390000e-4 2.462978753900000e-4 2.569911490900000e-4 2.681486971220000e-4
2.797906559810000e-4 2.919380839010000e-4 3.046128663170000e-4 3.178379758410000e-4
3.316372359190001e-4 3.460356280740000e-4 3.610591264710000e-4 3.767348869840000e-4
3.930912471990000e-4 4.101577264119999e-4 4.279651437980000e-4 4.465457129500000e-4
4.659329709700001e-4 4.861619675449999e-4 5.072691940380000e-4 5.292928434690001e-4
5.522726450640000e-4 5.762501715050000e-4 6.012686971140000e-4 6.273734341960000e-4
6.546115093970001e-4 6.830322000430000e-4 7.126867686909999e-4 7.436288412719999e-4
7.759143125430001e-4 8.096014878860000e-4 8.447512250979999e-4 8.814270289200000e-4
9.196951691920001e-4 9.596247753680000e-4 1.001287954680000e-3 1.044760004810000e-3
1.090119437500000e-3 1.137448214910000e-3 1.186831844030000e-3 1.238359518560000e-3
1.292124331480000e-3 1.348223416880000e-3 1.406758138920000e-3 1.467834233640000e-3
1.531562021530000e-3 1.598056667480000e-3 1.667438275200000e-3 1.739832194360000e-3
1.815369209580000e-3 1.894185823860000e-3 1.976424376630000e-3 2.062233468990000e-3
2.151768128950000e-3 2.245190142100000e-3 2.342668240410000e-3 2.444378621910000e-3
2.550504784910000e-3 2.661238969360000e-3 2.776780856460000e-3 2.897339104520000e-3
3.023131820980001e-3 3.154386325560000e-3 3.291339622140000e-3 3.434239107080001e-3
3.583343040920000e-3 3.738921020069999e-3 3.901253739290000e-3 4.070635117439999e-3
4.247370877910001e-3 4.431780201260000e-3 4.624196905050000e-3 4.824968259820000e-3
5.034457350050001e-3 5.253042598600000e-3 5.481119181460000e-3 5.719099496780000e-3
5.967413396980000e-3 6.226510074710000e-3 6.496857584729999e-3 6.778944964849999e-3
7.073282228859999e-3 7.380401067650000e-3 7.700857439889999e-3 8.035230616400000e-3
8.384125531859999e-3 8.748172771599998e-3 9.128031392550000e-3 9.524388433480000e-3
9.937960786310001e-3 1.036949730100000e-2 1.081977899670000e-2 1.128962068800000e-2
1.177987331540000e-2 1.229142461780000e-2 1.282520121790000e-2 1.338216999210000e-2
1.396334061690000e-2 1.456976645270000e-2 1.520254683730000e-2 1.586283007910000e-2
1.655181384020000e-2 1.727074905140000e-2 1.802094121450000e-2 1.880375310610000e-2
1.962060793620000e-2 2.047299130510000e-2 2.136245455490000e-2 2.229061691240000e-2
2.325917020240000e-2 2.426988021770000e-2 2.532459206820000e-2 2.642523453960000e-2
2.757381589930000e-2 2.877244444710000e-2 3.002331144490000e-2 3.132871412710000e-2
3.269105264490000e-2 3.411283400240000e-2 3.559667824660000e-2 3.714532453390000e-2
3.876163941730000e-2 4.044862025300000e-2 4.220939842770000e-2 4.404725654150000e-2
4.596562411430000e-2 4.796809898510000e-2 5.005843773340000e-2 5.224058586440000e-2
5.451866749470000e-2 5.689701233240000e-2 5.938015855750000e-2 6.197286220180000e-2
6.468011764870001e-2 6.750717030139999e-2 7.045952133030000e-2 7.354296205050000e-2
7.676357656310000e-2 8.012776430970002e-2 8.364226586370000e-2 8.731418234110000e-2
9.115099995650001e-2 9.516061474860001e-2 9.935136889090000e-2 1.037320770930000e-1
1.083120614700000e-1 1.131011967050000e-1 1.181099438870000e-1 1.233494051570000e-1
1.288313750010000e-1 1.345683897180000e-1 1.405737974160000e-1 1.468618263580000e-1
1.534476597070000e-1 1.603475244080000e-1 1.675787785190000e-1 1.751600181470000e-1
1.831111968910000e-1 1.914537435100000e-1 2.002107092430000e-1 2.094069201930000e-1
2.190691511700000e-1 2.292263158590000e-1 2.399096606870000e-1 2.511530418310000e-1
2.629930914130000e-1 2.754696011220000e-1 2.886257637490000e-1 3.025085293650000e-1
3.171689709140000e-1 3.326627091900000e-1 3.490502897630000e-1 3.663977532350000e-1
3.847770866380000e-1 4.042668325850000e-1 4.249526046600000e-1 4.469278757430001e-1
4.702945438790000e-1 4.951636712950000e-1 5.216563067980000e-1 5.499041557540000e-1
5.800504247160000e-1 6.122505333519999e-1 6.466727792980000e-1 6.834988529709999e-1
7.229241665770000e-1 7.651578609600000e-1 8.104221619920001e-1 8.589510885910000e-1
9.109880251400000e-1 9.667816222210000e-1 1.026579752650000e0 1.090620326430000e0
1.159118496340000e0 1.232248794870000e0 1.310121186110000e0 1.392749753040000e0
1.480012817000000e0 1.571603661490000e0 1.666972617480000e0 1.765260798030000e0
1.865229836130000e0 1.965193647840000e0 2.062960287030000e0 2.155797768920000e0
2.240438170500000e0 2.313135378830000e0 2.369791614660000e0 2.406157350600000e0
2.418102270730000e0 2.401934464690000e0 2.354734539950000e0 2.274658726010000e0
2.161172201080000e0 2.015195163320000e0 1.839179105180000e0 1.637159506420000e0
1.414829419400000e0 1.179624257200000e0 9.407099545810000e-1 7.086772831780000e-1
4.947388162590000e-1 3.093668084690000e-1 1.605776083530000e-1 5.234443597430001e-2
-1.626772041060000e-2 -5.081885458120000e-2 -6.004968604770000e-2 -5.373325259820000e-2
-4.055946985649999e-2 -2.672907061910000e-2 -1.557143875990000e-2 -8.046058228360000e-3
-3.682817323480000e-3 -1.487099303300000e-3 -5.265644502910000e-4 -1.622798009070000e-4
-4.315059742190000e-5 -9.802388379709997e-6 -1.881632652660000e-6 -3.015426813520000e-7
-3.981315669540000e-8 -4.268645118330000e-9 -3.658374648989999e-10 -2.463456957869999e-11
-1.279057282790000e-12 -5.016391549880002e-14 -1.447327163890000e-15 -3.590084030059999e-17
0.000000000000000e0 0.000000000000000e0 0.000000000000000e0 0.000000000000000e0
0.000000000000000e0 0.000000000000000e0 0.000000000000000e0 0.000000000000000e0
0.000000000000000e0 0.000000000000000e0 0.000000000000000e0 0.000000000000000e0
0.000000000000000e0 0.000000000000000e0 0.000000000000000e0 0.000000000000000e0
0.000000000000000e0 0.000000000000000e0 0.000000000000000e0 0.000000000000000e0
0.000000000000000e0 0.000000000000000e0 0.000000000000000e0 0.000000000000000e0
0.000000000000000e0 0.000000000000000e0 0.000000000000000e0 0.000000000000000e0
0.000000000000000e0 0.000000000000000e0 0.000000000000000e0 0.000000000000000e0
0.000000000000000e0 0.000000000000000e0 0.000000000000000e0 0.000000000000000e0
0.000000000000000e0 0.000000000000000e0 0.000000000000000e0 0.000000000000000e0
0.000000000000000e0 0.000000000000000e0 0.000000000000000e0 0.000000000000000e0
0.000000000000000e0 0.000000000000000e0 0.000000000000000e0 0.000000000000000e0
0.000000000000000e0 0.000000000000000e0 0.000000000000000e0 0.000000000000000e0
0.000000000000000e0 0.000000000000000e0 0.000000000000000e0 0.000000000000000e0
0.000000000000000e0 0.000000000000000e0 0.000000000000000e0 0.000000000000000e0
0.000000000000000e0 0.000000000000000e0 0.000000000000000e0 0.000000000000000e0
0.000000000000000e0 0.000000000000000e0 0.000000000000000e0
</PP_BETA.1>
<PP_BETA.2 index="2" label="6P" angular_momentum="1" cutoff_radius_index="277" cutoff_radius="0.000000000000e0" ultrasoft_cutoff_radius="0.000000000000e0">
5.581657497829999e-9 6.076845734670001e-9 6.615965660570001e-9 7.202914763999999e-9
7.841936001890002e-9 8.537649500440001e-9 9.295084760530001e-9 1.011971812240000e-8
1.101750936600000e-8 1.199495070330000e-8 1.305910784510000e-8 1.421767331720000e-8
1.547902337689999e-8 1.685227709300000e-8 1.834736190840000e-8 1.997508640920000e-8
2.174721741440000e-8 2.367656643410000e-8 2.577708189030001e-8 2.806394926270000e-8
3.055370060180000e-8 3.326433556830000e-8 3.621545039870000e-8 3.942837911920001e-8