<UPF version="2.0.1">
<PP_INFO>
Generated by new atomic code, or converted to UPF format
Author:
Generation date:
Pseudopotential type: NC
Element: S
Functional:  SLA  PZ   NOGX NOGC
Suggested minimum cutoff for wavefunctions:   0. Ry
Suggested minimum cutoff for charge density:   0. Ry
The Pseudo was generated with a Non-Relativistic Calculation
L component and cutoff radius for Local Potential:  0   0.0000
Valence configuration:
nl pn  l   occ       Rcut    Rcut US       E pseu
5S  0  0  2.00      0.000      0.000     0.000000
5P  0  1  4.00      0.000      0.000     0.000000
Generation configuration: not available.
</PP_INFO>
<!--
END OF HUMAN READABLE SECTION
-->
<PP_HEADER generated="Generated by new atomic code, or converted to UPF format" author="" date="" comment="" element="S " pseudo_type="NC" relativistic="no" is_ultrasoft="false" is_paw="false" is_coulomb="false" has_so="false" has_wfc="false" has_gipaw="false" paw_as_gipaw="false" core_correction="false" functional=" SLA  PZ   NOGX NOGC" z_valence="6.000000000000e0" total_psenergy="0.000000000000e0" wfc_cutoff="0.000000000000e0" rho_cutoff="0.000000000000e0" l_max="1" l_max_rho="0" l_local="0" mesh_size="475" number_of_wfc="2" number_of_proj="2"/>
<PP_MESH dx="2.500000000000e-2" mesh="475" xmin="-5.000000000000e0" rmax="5.899255666700e1" zmesh="1.600000000000e1">
<PP_R>
4.211216874430001e-4 4.317824337160000e-4 4.427130580660000e-4 4.539203924880001e-4
4.654114419330001e-4 4.771933886790000e-4 4.892735968270000e-4 5.016596169000000e-4
5.143591905640000e-4 5.273802554660000e-4 5.407309501949999e-4 5.544196193710000e-4
5.684548188559999e-4 5.828453211079999e-4 5.976001206590000e-4 6.127284397390000e-4
6.282397340399999e-4 6.441436986250000e-4 6.604502739910000e-4 6.771696522770000e-4
6.943122836400001e-4 7.118888827820000e-4 7.299104356499999e-4 7.483882063000000e-4
7.673337439420002e-4 7.867588901520000e-4 8.066757862799999e-4 8.270968810340001e-4
8.480349382629997e-4 8.695030449340001e-4 8.915146193120000e-4 9.140834193500002e-4
9.372235512800000e-4 9.609494784390000e-4 9.852760303029999e-4 1.010218411760000e-3
1.035792212610000e-3 1.062013417310000e-3 1.088898414970000e-3 1.116464009580000e-3
1.144727430550000e-3 1.173706343420000e-3 1.203418860960000e-3 1.233883554470000e-3
1.265119465360000e-3 1.297146117110000e-3 1.329983527400000e-3 1.363652220690000e-3
1.398173241010000e-3 1.433568165120000e-3 1.469859116000000e-3 1.507068776680000e-3
1.545220404400000e-3 1.584337845170000e-3 1.624445548670000e-3 1.665568583520000e-3
1.707732652960000e-3 1.750964110890000e-3 1.795289978390000e-3 1.840737960570000e-3
1.887336463890000e-3 1.935114613950000e-3 1.984102273630000e-3 2.034330061820000e-3
2.085829372520000e-3 2.138632394480000e-3 2.192772131300000e-3 2.248282422090000e-3
2.305197962580000e-3 2.363554326830000e-3 2.423387989480000e-3 2.484736348510000e-3
2.547637748650000e-3 2.612131505310000e-3 2.678257929190000e-3 2.746058351460000e-3
2.815575149600000e-3 2.886851773860000e-3 2.959932774450000e-3 3.034863829380000e-3
3.111691772990000e-3 3.190464625260000e-3 3.271231621780001e-3 3.354043244550000e-3
3.438951253529999e-3 3.526008718990000e-3 3.615270054680000e-3 3.706791051840000e-3
3.800628914080000e-3 3.896842293100000e-3 3.995491325420000e-3 4.096637669880000e-3
4.200344546230000e-3 4.306676774670000e-3 4.415700816280000e-3 4.527484814639999e-3
4.642098638400000e-3 4.759613924910000e-3 4.880104125070000e-3 5.003644549170000e-3
5.130312413990000e-3 5.260186891080000e-3 5.393349156210001e-3 5.529882440130001e-3
5.669872080590000e-3 5.813405575670000e-3 5.960572638470000e-3 6.111465253210000e-3
6.266177732680001e-3 6.424806777210001e-3 6.587451535120000e-3 6.754213664679999e-3
6.925197397650001e-3 7.100509604420000e-3 7.280259860839999e-3 7.464560516669999e-3
7.653526765810001e-3 7.847276718320000e-3 8.045931474240000e-3 8.249615199240001e-3
8.458455202290001e-3 8.672582015180000e-3 8.892129474160001e-3 9.117234803510000e-3
9.348038701410001e-3 9.584685427810001e-3 9.827322894599998e-3 1.007610275810000e-2
1.033118051380000e-2 1.059271559370000e-2 1.086087146570000e-2 1.113581573580000e-2
1.141772025330000e-2 1.170676121760000e-2 1.200311928880000e-2 1.230697970030000e-2
1.261853237470000e-2 1.293797204260000e-2 1.326549836420000e-2 1.360131605410000e-2
1.394563500930000e-2 1.429867044030000e-2 1.466064300590000e-2 1.503177895050000e-2
1.541231024640000e-2 1.580247473780000e-2 1.620251629040000e-2 1.661268494310000e-2
1.703323706460000e-2 1.746443551380000e-2 1.790654980380000e-2 1.835985627020000e-2
1.882463824450000e-2 1.930118623050000e-2 1.978979808620000e-2 2.029077920990000e-2
2.080444273110000e-2 2.133110970630000e-2 2.187110931940000e-2 2.242477908790000e-2
2.299246507319999e-2 2.357452209770000e-2 2.417131396590000e-2 2.478321369220000e-2
2.541060373380000e-2 2.605387622989999e-2 2.671343324680000e-2 2.738968702910000e-2
2.808306025730000e-2 2.879398631240000e-2 2.952290954630000e-2 3.027028555970000e-2
3.103658148700000e-2 3.182227628800000e-2 3.262786104760000e-2 3.345383928240000e-2
3.430072725590000e-2 3.516905430040000e-2 3.605936314879999e-2 3.697221027289999e-2
3.790816623200000e-2 3.886781602910000e-2 3.985175947640001e-2 4.086061157060001e-2
4.189500287720000e-2 4.295557992440000e-2 4.404300560739999e-2 4.515795960260000e-2
4.630113879260000e-2 4.747325770160000e-2 4.867504894200000e-2 4.990726367250000e-2
5.117067206740000e-2 5.246606379810000e-2 5.379424852660000e-2 5.515605641150000e-2
5.655233862720000e-2 5.798396789550000e-2 5.945183903130000e-2 6.095686950180000e-2
6.250000000000000e-2 6.408219503280000e-2 6.570444352350000e-2 6.736775943030000e-2
6.907318237970000e-2 7.082177831670000e-2 7.261464017050000e-2 7.445288853830000e-2
7.633767238500000e-2 7.827016976200001e-2 8.025158854300001e-2 8.228316717920002e-2
8.436617547350000e-2 8.650191537380001e-2 8.869172178710000e-2 9.093696341360001e-2
9.323904360260000e-2 9.559940122900001e-2 9.801951159310001e-2 1.005008873430000e-1
1.030450794190000e-1 1.056536780240000e-1 1.083283136170000e-1 1.110706579320000e-1
1.138824250240000e-1 1.167653723400000e-1 1.197213018130000e-1 1.227520609980000e-1
1.258595442170000e-1 1.290456937480000e-1 1.323125010380000e-1 1.356620079490000e-1
1.390963080310000e-1 1.426175478330000e-1 1.462279282450000e-1 1.499297058730000e-1
1.537251944470000e-1 1.576167662720000e-1 1.616068537070000e-1 1.656979506860000e-1
1.698926142790000e-1 1.741934662850000e-1 1.786031948790000e-1 1.831245562830000e-1
1.877603764970000e-1 1.925135530570000e-1 1.973870568560000e-1 2.023839339900000e-1
2.075073076710000e-1 2.127603801740000e-1 2.181464348410000e-1 2.236688381310000e-1
2.293310417260000e-1 2.351365846870000e-1 2.410890956690000e-1 2.471922951830000e-1
2.534499979280000e-1 2.598661151720000e-1 2.664446571980000e-1 2.731897358080000e-1
2.801055668960000e-1 2.871964730820000e-1 2.944668864120000e-1 3.019213511320000e-1
3.095645265250000e-1 3.174011898240000e-1 3.254362391990000e-1 3.336746968170000e-1
3.421217119830000e-1 3.507825643560000e-1 3.596626672500000e-1 3.687675710200000e-1
3.781029665260000e-1 3.876746886940000e-1 3.974887201630000e-1 4.075511950210000e-1
4.178684026420000e-1 4.284467916190000e-1 4.392929737870000e-1 4.504137283640000e-1
4.618160061830000e-1 4.735069340400000e-1 4.854938191440000e-1 4.977841536900000e-1
5.103856195350000e-1 5.233060930080001e-1 5.365536498240000e-1 5.501365701370000e-1
5.640633437150000e-1 5.783426752440000e-1 5.929834897720000e-1 6.079949382850000e-1
6.233864034260001e-1 6.391675053619999e-1 6.553481077950000e-1 6.719383241300000e-1
6.889485237900001e-1 7.063893387049999e-1 7.242716699510000e-1 7.426066945690000e-1
7.614058725440001e-1 7.806809539750001e-1 8.004439864160000e-1 8.207073224060000e-1
8.414836271879999e-1 8.627858866290000e-1 8.846274153360000e-1 9.070218649739999e-1
9.299832328050000e-1 9.535258704290001e-1 9.776644927620000e-1 1.002414187230000e0
1.027790423190000e0 1.053809061630000e0 1.080486365040000e0 1.107839007590000e0
1.135884085590000e0 1.164639128120000e0 1.194122108010000e0 1.224351453100000e0
1.255346057700000e0 1.287125294450000e0 1.319709026410000e0 1.353117619470000e0
1.387371955090000e0 1.422493443350000e0 1.458504036310000e0 1.495426241770000e0
1.533283137320000e0 1.572098384740000e0 1.611896244820000e0 1.652701592540000e0
1.694539932540000e0 1.737437415170000e0 1.781420852740000e0 1.826517736330000e0
1.872756252960000e0 1.920165303220000e0 1.968774519300000e0 2.018614283540000e0
2.069715747420000e0 2.122110851020000e0 2.175832342980000e0 2.230913800980000e0
2.287389652730000e0 2.345295197480000e0 2.404666628060000e0 2.465541053580000e0
2.527956522500000e0 2.591952046550000e0 2.657567625000000e0 2.724844269730000e0
2.793824030830000e0 2.864550022900000e0 2.937066451970000e0 3.011418643190000e0
3.087653069100000e0 3.165817378680000e0 3.245960427180000e0 3.328132306610000e0
3.412384377070000e0 3.498769298850000e0 3.587341065340000e0 3.678155036770000e0
3.771267974840000e0 3.866738078150000e0 3.964625018630000e0 4.064989978810000e0
4.167895690060000e0 4.273406471780000e0 4.381588271670000e0 4.492508706850000e0
4.606237106220000e0 4.722844553730000e0 4.842403932830000e0 4.964989972020000e0
5.090679291560000e0 5.219550451380000e0 5.351684000140000e0 5.487162525610000e0
5.626070706280000e0 5.768495364290000e0 5.914525519680000e0 6.064252446060000e0
6.217769727620000e0 6.375173317670000e0 6.536561598570000e0 6.702035443250000e0
6.871698278260000e0 7.045656148380000e0 7.224017782950000e0 7.406894663800000e0
7.594401094920000e0 7.786654273950000e0 7.983774365380000e0 8.185884575679999e0
8.393111230310000e0 8.605583852680001e0 8.823435245090000e0 9.046801571760000e0
9.275822443910000e0 9.510641007040000e0 9.751404030400000e0 9.998261998709999e0
1.025136920620000e1 1.051088385320000e1 1.077696814480000e1 1.104978839230000e1
1.132951511720000e1 1.161632315790000e1 1.191039177870000e1 1.221190478200000e1
1.252105062340000e1 1.283802252900000e1 1.316301861670000e1 1.349624201940000e1
1.383790101280000e1 1.418820914470000e1 1.454738536920000e1 1.491565418320000e1
1.529324576650000e1 1.568039612630000e1 1.607734724410000e1 1.648434722730000e1
1.690165046410000e1 1.732951778270000e1 1.776821661400000e1 1.821802115910000e1
1.867921256040000e1 1.915207907770000e1 1.963691626790000e1 2.013402716990000e1
2.064372249440000e1 2.116632081740000e1 2.170214877990000e1 2.225154129190000e1
2.281484174160000e1 2.339240221000000e1 2.398458369130000e1 2.459175631820000e1
2.521429959330000e1 2.585260262640000e1 2.650706437780000e1 2.717809390730000e1
2.786611063020001e1 2.857154457930000e1 2.929483667390000e1 3.003643899500000e1
3.079681506830000e1 3.157644015360000e1 3.237580154180000e1 3.319539885990000e1
3.403574438290000e1 3.489736335410000e1 3.578079431340000e1 3.668658943390000e1
3.761531486700000e1 3.856755109640000e1 3.954389330080000e1 4.054495172570000e1
4.157135206530000e1 4.262373585320001e1 4.370276086350001e1 4.480910152200000e1
4.594344932760000e1 4.710651328470000e1 4.829902034590000e1 4.952171586720000e1
5.077536407300000e1 5.206074853420001e1 5.337867265790000e1 5.472996018970001e1
5.611545572820000e1 5.753602525320001e1 5.899255666700000e1
</PP_R>
<PP_RAB>
1.052804218610000e-5 1.079456084290000e-5 1.106782645160000e-5 1.134800981220000e-5
1.163528604830000e-5 1.192983471700000e-5 1.223183992070000e-5 1.254149042250000e-5
1.285897976410000e-5 1.318450638660000e-5 1.351827375490000e-5 1.386049048430000e-5
1.421137047140000e-5 1.457113302770000e-5 1.494000301650000e-5 1.531821099350000e-5
1.570599335100000e-5 1.610359246560000e-5 1.651125684980000e-5 1.692924130689999e-5
1.735780709100000e-5 1.779722206960000e-5 1.824776089120000e-5 1.870970515750000e-5
1.918334359850000e-5 1.966897225380000e-5 2.016689465700000e-5 2.067742202580000e-5
2.120087345660000e-5 2.173757612329999e-5 2.228786548280000e-5 2.285208548370000e-5
2.343058878200000e-5 2.402373696100000e-5 2.463190075760000e-5 2.525546029400000e-5
2.589480531530000e-5 2.655033543280000e-5 2.722246037420000e-5 2.791160023960000e-5
2.861818576360000e-5 2.934265858540000e-5 3.008547152399999e-5 3.084708886170000e-5
3.162798663410000e-5 3.242865292770000e-5 3.324958818500001e-5 3.409130551730000e-5
3.495433102530000e-5 3.583920412800000e-5 3.674647790000000e-5 3.767671941690000e-5
3.863051010990000e-5 3.960844612930000e-5 4.061113871680000e-5 4.163921458809999e-5
4.269331632390000e-5 4.377410277220001e-5 4.488224945970002e-5 4.601844901420000e-5
4.718341159740000e-5 4.837786534870000e-5 4.960255684070000e-5 5.085825154550000e-5
5.214573431300000e-5 5.346580986200000e-5 5.481930328260000e-5 5.620706055219999e-5
5.762994906439999e-5 5.908885817080000e-5 6.058469973710000e-5 6.211840871280000e-5
6.369094371620000e-5 6.530328763270000e-5 6.695644822980001e-5 6.865145878660000e-5
7.038937873990001e-5 7.217129434639999e-5 7.399831936119999e-5 7.587159573440000e-5
7.779229432480000e-5 7.976161563149999e-5 8.178079054439999e-5 8.385108111360001e-5
8.597378133810000e-5 8.815021797469999e-5 9.038175136690000e-5 9.266977629599999e-5
9.501572285189999e-5 9.742105732759999e-5 9.988728313550000e-5 1.024159417470000e-4
1.050086136560000e-4 1.076669193670000e-4 1.103925204070000e-4 1.131871203660000e-4
1.160524659600000e-4 1.189903481230000e-4 1.220026031270000e-4 1.250911137290000e-4
1.282578103500000e-4 1.315046722770000e-4 1.348337289050000e-4 1.382470610030000e-4
1.417468020150000e-4 1.453351393920000e-4 1.490143159620000e-4 1.527866313300000e-4
1.566544433170000e-4 1.606201694300000e-4 1.646862883780000e-4 1.688553416170000e-4
1.731299349410000e-4 1.775127401110000e-4 1.820064965210000e-4 1.866140129170000e-4
1.913381691450000e-4 1.961819179580000e-4 2.011482868560000e-4 2.062403799810000e-4
2.114613800570000e-4 2.168145503800000e-4 2.223032368540000e-4 2.279308700880000e-4
2.337009675350000e-4 2.396171356950000e-4 2.456830723650000e-4 2.519025689530000e-4
2.582795128460000e-4 2.648178898430000e-4 2.715217866410000e-4 2.783953933949999e-4
2.854430063320001e-4 2.926690304410000e-4 3.000779822200000e-4 3.076744925070000e-4
3.154633093670000e-4 3.234493010640000e-4 3.316374591040000e-4 3.400329013520000e-4
3.486408752320000e-4 3.574667610080000e-4 3.665160751470000e-4 3.757944737630000e-4
3.853077561590000e-4 3.950618684450000e-4 4.050629072590000e-4 4.153171235760000e-4
4.258309266159999e-4 4.366108878460000e-4 4.476637450940000e-4 4.589964067560000e-4
4.706159561130000e-4 4.825296557630000e-4 4.947449521550000e-4 5.072694802470000e-4
5.201110682780000e-4 5.332777426579999e-4 5.467777329860001e-4 5.606194771969999e-4
5.748116268299999e-4 5.893630524420001e-4 6.042828491480000e-4 6.195803423050000e-4
6.352650933450001e-4 6.513469057479999e-4 6.678358311700000e-4 6.847421757259999e-4
7.020765064329999e-4 7.198496578110001e-4 7.380727386579999e-4 7.567571389930000e-4
7.759145371740001e-4 7.955569071989999e-4 8.156965261889999e-4 8.363459820610000e-4
8.575181813970001e-4 8.792263575109999e-4 9.014840787199997e-4 9.243052568229999e-4
9.477041558010001e-4 9.716954007270001e-4 9.962939869089999e-4 1.021515289270000e-3
1.047375071930000e-3 1.073889498110000e-3 1.101075140190000e-3 1.128948990070000e-3
1.157528469820000e-3 1.186831442540000e-3 1.216876223550000e-3 1.247681591810000e-3
1.279266801680000e-3 1.311651594950000e-3 1.344856213160000e-3 1.378901410290000e-3
1.413808465680000e-3 1.449599197390000e-3 1.486295975780000e-3 1.523921737540000e-3
1.562500000000000e-3 1.602054875820000e-3 1.642611088090000e-3 1.684193985760000e-3
1.726829559490000e-3 1.770544457920000e-3 1.815366004260000e-3 1.861322213460000e-3
1.908441809630000e-3 1.956754244050000e-3 2.006289713570000e-3 2.057079179480001e-3
2.109154386840000e-3 2.162547884340000e-3 2.217293044680000e-3 2.273424085340000e-3
2.330976090060000e-3 2.389985030720000e-3 2.450487789830000e-3 2.512522183570000e-3
2.576126985470000e-3 2.641341950590000e-3 2.708207840420000e-3 2.776766448300000e-3
2.847060625609999e-3 2.919134308490000e-3 2.993032545330000e-3 3.068801524950000e-3
3.146488605420000e-3 3.226142343700000e-3 3.307812525960000e-3 3.391550198720000e-3
3.477407700770000e-3 3.565438695830001e-3 3.655698206130000e-3 3.748242646820000e-3
3.843129861180000e-3 3.940419156810000e-3 4.040171342680000e-3 4.142448767160001e-3
4.247315356970000e-3 4.354836657130000e-3 4.465079871970000e-3 4.578113907080000e-3
4.694009412420000e-3 4.812838826430000e-3 4.934676421390000e-3 5.059598349750000e-3
5.187682691780000e-3 5.319009504360000e-3 5.453660871029999e-3 5.591720953279999e-3
5.733276043159999e-3 5.878414617190000e-3 6.027227391710000e-3 6.179807379560000e-3
6.336249948189999e-3 6.496652879310000e-3 6.661116429949999e-3 6.829743395200000e-3
7.002639172400000e-3 7.179911827040000e-3 7.361672160300001e-3 7.548033778300001e-3
7.739113163119999e-3 7.935029745590000e-3 8.135905979970000e-3 8.341867420429999e-3
8.553042799570001e-3 8.769564108900001e-3 8.991566681260000e-3 9.219189275500000e-3
9.452574163150000e-3 9.691867217350001e-3 9.937218004070001e-3 1.018877987550000e-2
1.044671006610000e-2 1.071116979050000e-2 1.098232434470000e-2 1.126034320910000e-2
1.154540015460000e-2 1.183767335100000e-2 1.213734547860000e-2 1.244460384220000e-2
1.275964048840000e-2 1.308265232520000e-2 1.341384124560000e-2 1.375341425340000e-2
1.410158359290000e-2 1.445856688110000e-2 1.482458724430000e-2 1.519987345710000e-2
1.558466008560000e-2 1.597918763400000e-2 1.638370269490000e-2 1.679845810320000e-2
1.722371309480000e-2 1.765973346760000e-2 1.810679174880000e-2 1.856516736420000e-2
1.903514681360000e-2 1.951702384940000e-2 2.001109966040000e-2 2.051768306010000e-2
2.103709067970000e-2 2.156964716570000e-2 2.211568538340000e-2 2.267554662440000e-2
2.324958082010000e-2 2.383814676070000e-2 2.444161231900000e-2 2.506035468070000e-2
2.569476057980000e-2 2.634522654080000e-2 2.701215912590000e-2 2.769597518980000e-2
2.839710213980000e-2 2.911597820300000e-2 2.985305270040000e-2 3.060878632750000e-2
3.138365144250000e-2 3.217813236120000e-2 3.299272566020000e-2 3.382794048670000e-2
3.468429887730000e-2 3.556233608360000e-2 3.646260090770000e-2 3.738565604430000e-2
3.833207843300000e-2 3.930245961850000e-2 4.029740612060000e-2 4.131753981340000e-2
4.236349831350000e-2 4.343593537919999e-2 4.453552131840000e-2 4.566294340820000e-2
4.681890632409999e-2 4.800413258050000e-2 4.921936298239999e-2 5.046535708850000e-2
5.174289368550000e-2 5.305277127540000e-2 5.439580857439999e-2 5.577284502450000e-2
5.718474131819999e-2 5.863237993690000e-2 6.011666570160000e-2 6.163852633940000e-2
6.319891306260001e-2 6.479880116380000e-2 6.643919062509999e-2 6.812110674330000e-2
6.984560077079999e-2 7.161375057240001e-2 7.342666129930000e-2 7.528546607980000e-2
7.719132672740001e-2 7.914543446690001e-2 8.114901067940000e-2 8.320330766520000e-2
8.530960942680000e-2 8.746923247130001e-2 8.968352663350000e-2 9.195387591930000e-2
9.428169937090001e-2 9.666845195370000e-2 9.911562546579999e-2 1.016247494700000e-1
1.041973922510000e-1 1.068351617950000e-1 1.095397067920000e-1 1.123127176710000e-1
1.151559276560000e-1 1.180711138430000e-1 1.210600983210000e-1 1.241247493000000e-1
1.272669822890000e-1 1.304887612840000e-1 1.337921000030000e-1 1.371790631400000e-1
1.406517676570000e-1 1.442123841070000e-1 1.478631379920000e-1 1.516063111510000e-1
1.554442431910000e-1 1.593793329420000e-1 1.634140399640000e-1 1.675508860810000e-1
1.717924569560000e-1 1.761414037090000e-1 1.806004445740000e-1 1.851723665950000e-1
1.898600273730000e-1 1.946663568490000e-1 1.995943591340000e-1 2.046471143920000e-1
2.098277807580000e-1 2.151395963170000e-1 2.205858811270000e-1 2.261700392940000e-1
2.318955610980000e-1 2.377660251760000e-1 2.437851007600000e-1 2.499565499680000e-1
2.562842301560000e-1 2.627720963310000e-1 2.694242036200000e-1 2.762447098070000e-1
2.832378779300000e-1 2.904080789470000e-1 2.977597944670000e-1 3.052976195510000e-1
3.130262655860000e-1 3.209505632260000e-1 3.290754654170000e-1 3.374060504850000e-1
3.459475253190000e-1 3.547052286180000e-1 3.636846342310000e-1 3.728913545790000e-1
3.823311441630000e-1 3.920099031580000e-1 4.019336811030000e-1 4.121086806830000e-1
4.225412616030000e-1 4.332379445670000e-1 4.442054153500000e-1 4.554505289770000e-1
4.669803140110000e-1 4.788019769430000e-1 4.909229066960000e-1 5.033506792480001e-1
5.160930623590000e-1 5.291580204340000e-1 5.425537194980000e-1 5.562885322980000e-1
5.703710435400000e-1 5.848100552500000e-1 5.996145922829999e-1 6.147939079550000e-1
6.303574898320000e-1 6.463150656610001e-1 6.626766094450000e-1 6.794523476820000e-1
6.966527657540000e-1 7.142886144829999e-1 7.323709168480001e-1 7.509109748760000e-1
7.699203767079999e-1 7.894110038390000e-1 8.093950385439999e-1 8.298849714970000e-1
8.508936095719999e-1 8.724340838520000e-1 8.945198578339999e-1 9.171647358460000e-1
9.403828716750001e-1 9.641887774110000e-1 9.885973325189999e-1 1.013623793140000e0
1.039283801630000e0 1.065593396330000e0 1.092569021590000e0 1.120227538050000e0
1.148586233190000e0 1.177662832120000e0 1.207475508650000e0 1.238042896680000e0
1.269384101820000e0 1.301518713350000e0 1.334466816450000e0 1.368249004740000e0
1.402886393200000e0 1.438400631330000e0 1.474813916670000e0
</PP_RAB>
</PP_MESH>
<PP_LOCAL columns="4">
-1.718896599100000e1 -1.718896624300000e1 -1.718896650700000e1 -1.718896678500000e1
-1.718896707700000e1 -1.718896738400000e1 -1.718896770700000e1 -1.718896804600000e1
-1.718896840300000e1 -1.718896877800000e1 -1.718896917200000e1 -1.718896958600000e1
-1.718897002200000e1 -1.718897048000000e1 -1.718897096200000e1 -1.718897146800000e1
-1.718897200000000e1 -1.718897255900000e1 -1.718897314700000e1 -1.718897376600000e1
-1.718897441600000e1 -1.718897509900000e1 -1.718897581700000e1 -1.718897657200000e1
-1.718897736600000e1 -1.718897820100000e1 -1.718897907800000e1 -1.718898000100000e1
-1.718898097000000e1 -1.718898199000000e1 -1.718898306100000e1 -1.718898418800000e1
-1.718898537200000e1 -1.718898661700000e1 -1.718898792600000e1 -1.718898930200000e1
-1.718899074800000e1 -1.718899226900000e1 -1.718899386800000e1 -1.718899554800000e1
-1.718899731500000e1 -1.718899917300000e1 -1.718900112500000e1 -1.718900317800000e1
-1.718900533600000e1 -1.718900760400000e1 -1.718900998900000e1 -1.718901249700000e1
-1.718901513200000e1 -1.718901790300000e1 -1.718902081600000e1 -1.718902387800000e1
-1.718902709800000e1 -1.718903048200000e1 -1.718903404000000e1 -1.718903778000000e1
-1.718904171200000e1 -1.718904584600000e1 -1.718905019100000e1 -1.718905475900000e1
-1.718905956200000e1 -1.718906461100000e1 -1.718906991800000e1 -1.718907549800000e1
-1.718908136400000e1 -1.718908753000000e1 -1.718909401300000e1 -1.718910082800000e1
-1.718910799200000e1 -1.718911552400000e1 -1.718912344200000e1 -1.718913176500000e1
-1.718914051600000e1 -1.718914971500000e1 -1.718915938600000e1 -1.718916955200000e1
-1.718918024000000e1 -1.718919147600000e1 -1.718920328700000e1 -1.718921570500000e1
-1.718922875800000e1 -1.718924248100000e1 -1.718925690800000e1 -1.718927207400000e1
-1.718928801800000e1 -1.718930477900000e1 -1.718932239900000e1 -1.718934092200000e1
-1.718936039500000e1 -1.718938086700000e1 -1.718940238800000e1 -1.718942501200000e1
-1.718944879500000e1 -1.718947379800000e1 -1.718950008300000e1 -1.718952771500000e1
-1.718955676300000e1 -1.718958730000000e1 -1.718961940300000e1 -1.718965315100000e1
-1.718968862900000e1 -1.718972592600000e1 -1.718976513400000e1 -1.718980635200000e1
-1.718984968300000e1 -1.718989523400000e1 -1.718994312000000e1 -1.718999346100000e1
-1.719004638100000e1 -1.719010201300000e1 -1.719016049700000e1 -1.719022197800000e1
-1.719028660900000e1 -1.719035455300000e1 -1.719042597800000e1 -1.719050106300000e1
-1.719057999600000e1 -1.719066297300000e1 -1.719075020200000e1 -1.719084190000000e1
-1.719093829700000e1 -1.719103963200000e1 -1.719114615800000e1 -1.719125814200000e1
-1.719137586200000e1 -1.719149961300000e1 -1.719162970200000e1 -1.719176645400000e1
-1.719191021100000e1 -1.719206133000000e1 -1.719222018700000e1 -1.719238718000000e1
-1.719256272400000e1 -1.719274725500000e1 -1.719294123400000e1 -1.719314514400000e1
-1.719335949200000e1 -1.719358481200000e1 -1.719382166400000e1 -1.719407063800000e1
-1.719433235200000e1 -1.719460745800000e1 -1.719489663800000e1 -1.719520061200000e1
-1.719552013500000e1 -1.719585599900000e1 -1.719620903900000e1 -1.719658013000000e1
-1.719697019300000e1 -1.719738019500000e1 -1.719781115100000e1 -1.719826412900000e1
-1.719874025100000e1 -1.719924069400000e1 -1.719976669600000e1 -1.720031955700000e1
-1.720090064300000e1 -1.720151138800000e1 -1.720215329800000e1 -1.720282795700000e1
-1.720353702500000e1 -1.720428224900000e1 -1.720506546000000e1 -1.720588858400000e1
-1.720675364200000e1 -1.720766275500000e1 -1.720861815100000e1 -1.720962216800000e1
-1.721067726200000e1 -1.721178600900000e1 -1.721295111400000e1 -1.721417541500000e1
-1.721546189100000e1 -1.721681366700000e1 -1.721823402300000e1 -1.721972639800000e1
-1.722129440100000e1 -1.722294181700000e1 -1.722467261500000e1 -1.722649095700000e1
-1.722840120800000e1 -1.723040794200000e1 -1.723251595300000e1 -1.723473026800000e1
-1.723705615000000e1 -1.723949911700000e1 -1.724206494600000e1 -1.724475968800000e1
-1.724758967800000e1 -1.725056154800000e1 -1.725368224000000e1 -1.725695901500000e1
-1.726039947100000e1 -1.726401155300000e1 -1.726780356600000e1 -1.727178419300000e1
-1.727596250600000e1 -1.728034797800000e1 -1.728495050500000e1 -1.728978041300000e1
-1.729484847800000e1 -1.730016593700000e1 -1.730574450700000e1 -1.731159639600000e1
-1.731773432000000e1 -1.732417151700000e1 -1.733092175700000e1 -1.733799936500000e1
-1.734541922200000e1 -1.735319678700000e1 -1.736134810100000e1 -1.736988980400000e1
-1.737883913800000e1 -1.738821395600000e1 -1.739803273000000e1 -1.740831455300000e1
-1.741907913900000e1 -1.743034682700000e1 -1.744213857100000e1 -1.745447593800000e1
-1.746738109400000e1 -1.748087679300000e1 -1.749498635800000e1 -1.750973365200000e1
-1.752514306000000e1 -1.754123944600000e1 -1.755804811600000e1 -1.757559477400000e1
-1.759390546200000e1 -1.761300650600000e1 -1.763292444300000e1 -1.765368594100000e1
-1.767531771700000e1 -1.769784643800000e1 -1.772129861400000e1 -1.774570048500000e1
-1.777107789100000e1 -1.779745613800000e1 -1.782485984700000e1 -1.785331279700000e1
-1.788283775600000e1 -1.791345630300000e1 -1.794518863800000e1 -1.797805338700000e1
-1.801206739200000e1 -1.804724550600000e1 -1.808360037200000e1 -1.812114220400000e1
-1.815987856500000e1 -1.819981414900000e1 -1.824095055700000e1 -1.828328609000000e1
-1.832681554300000e1 -1.837153001000000e1 -1.841741670000000e1 -1.846445877600000e1
-1.851263519200000e1 -1.856192056600000e1 -1.861228504700000e1 -1.866369420300000e1
-1.871610891000000e1 -1.876948523600000e1 -1.882377430400000e1 -1.887892212400000e1
-1.893486936000000e1 -1.899155101100000e1 -1.904889596400000e1 -1.910682637700000e1
-1.916525682500000e1 -1.922409316300000e1 -1.928323100300000e1 -1.934255374600000e1
-1.940193004200000e1 -1.946121059100000e1 -1.952022415600000e1 -1.957877267100000e1
-1.963662532800000e1 -1.969351151900000e1 -1.974911253700000e1 -1.980305197400000e1
-1.985488476500000e1 -1.990408490200000e1 -1.995003193200000e1 -1.999199639500000e1
-2.002912454900000e1 -2.006042280000000e1 -2.008474247300000e1 -2.010076572400000e1
-2.010699359600000e1 -2.010173744500000e1 -2.008311516900000e1 -2.004905386000000e1
-1.999730063900000e1 -1.992544355900000e1 -1.983094438300000e1 -1.971118497600000e1
-1.956352867700000e1 -1.938539756100000e1 -1.917436574100000e1 -1.892826789600000e1
-1.864532098200000e1 -1.832425565600000e1 -1.796445231200000e1 -1.756607495700000e1
-1.713019451400000e1 -1.665889173600000e1 -1.615532892400000e1 -1.562377934700000e1
-1.506960384600000e1 -1.449916577800000e1 -1.391967842900000e1 -1.333898325200000e1
-1.276526273000000e1 -1.220669798200000e1 -1.167108801900000e1 -1.116545398400000e1
-1.069565713400000e1 -1.026606257800000e1 -9.879281245600000e0 -9.536019342399999e0
-9.235057448399999e0 -8.973370601099999e0 -8.746386976500000e0 -8.548367584699999e0
-8.372874678200001e0 -8.213284547200001e0 -8.063293199100000e0 -7.917362706900000e0
-7.771062521300000e0 -7.621273286000000e0 -7.466238957300000e0 -7.305473484300000e0
-7.139547537600000e0 -6.969795436300000e0 -6.797989954100000e0 -6.626031957300000e0
-6.455693379300000e0 -6.288438030900000e0 -6.125328383900000e0 -5.967011224700000e0
-5.813763833200000e0 -5.665576735700000e0 -5.522249210800000e0 -5.383478366700000e0
-5.248929697900000e0 -5.118284402400000e0 -4.991264676600000e0 -4.867641839000000e0
-4.747233399600000e0 -4.629894678700000e0 -4.515509079000000e0 -4.403979411500000e0
-4.295221253600000e0 -4.189158392200000e0 -4.085719955300000e0 -3.984838723000000e0
-3.886450175500000e0 -3.790491963900000e0 -3.696903609700000e0 -3.605626321700000e0
-3.516602877200000e0 -3.429777536000000e0 -3.345095975300000e0 -3.262505237300000e0
-3.181953685200000e0 -3.103390964200000e0 -3.026767966300000e0 -2.952036798200000e0
-2.879150749700000e0 -2.808064264300000e0 -2.738732910500000e0 -2.671113354000000e0
-2.605163330300000e0 -2.540841618500000e0 -2.478108015500000e0 -2.416923310500000e0
-2.357249261400000e0 -2.299048569800000e0 -2.242284858300000e0 -2.186922647900000e0
-2.132927335300000e0 -2.080265171800000e0 -2.028903241700000e0 -1.978809442200000e0
-1.929952463000000e0 -1.882301766900000e0 -1.835827570700000e0 -1.790500826400000e0
-1.746293203500000e0 -1.703177070700000e0 -1.661125479000000e0 -1.620112144800000e0
-1.580111433400000e0 -1.541098343100000e0 -1.503048489500000e0 -1.465938090000000e0
-1.429743949600000e0 -1.394443445700000e0 -1.360014514400000e0 -1.326435636400000e0
-1.293685823800000e0 -1.261744607000000e0 -1.230592021700000e0 -1.200208596400000e0
-1.170575340600000e0 -1.141673732400000e0 -1.113485707600000e0 -1.085993647500000e0
-1.059180368800000e0 -1.033029112300000e0 -1.007523532600000e0 -9.826476879900000e-1
-9.583860301300000e-1 -9.347233947299999e-1 -9.116449918900001e-1 -8.891363968400000e-1